
1920 atoms
1 atom types
   0.0000000000    2.5697195300 xlo xhi
   0.0000000000  712.1415671254 ylo yhi
   0.0000000000   37.7670098690 zlo zhi
   0.0000000000   -0.0000000257   -0.0000000257 xy xz yz

Atoms # atomic

     1      1    1.9272899999    1.4823297860   10.7871096646
     2      1    1.9272900070   17.7974005176    0.3422295366
     3      1    1.9272900070    4.4492326259    0.3435189023
     4      1    0.6424290086    6.6739272745    0.3433176042
     5      1    1.9272900070   13.3479969775    0.3426861398
     6      1    0.6424290086   15.5726987476    0.3424621814
     7      1    1.9272900070    8.8986219231    0.3431125293
     8      1    0.6424290086   11.1233023289    0.3429025447
     9      1    0.6424290086    2.2245308558    0.3437171791
    10      1    1.9272900056   16.3142019101    2.4214998184
    11      1    0.6424290071   14.0895001400    2.4217196224
    12      1    0.6424290071   18.5388965587    2.4212596202
    13      1    0.6424290071    5.1906930599    2.4225599383
    14      1    0.6424300093    0.7412823984    2.4229496939
    15      1    1.9272900056    2.9659912899    2.4227597258
    16      1    0.6424290071    9.6400823571    2.4221497886
    17      1    1.9272900056    7.4153877085    2.4223597732
    18      1    1.9272900056   11.8647983700    2.4219398040
    19      1    0.6424290057   17.0555982514    4.5132196172
    20      1    1.9272900042   14.8309036027    4.5134496183
    21      1    0.6424290057   12.6062018327    4.5136698000
    22      1    1.9272900042   10.3815000627    4.5138797846
    23      1    0.6424290057    8.1568196569    4.5140897691
    24      1    1.9272900042    5.9321178868    4.5142899343
    25      1    0.6424290057    3.7074089954    4.5144897218
    26      1    1.9272900042    1.4827072253    4.5146898869
    27      1    1.9272900042   19.2803000214    4.5129797967
    28      1    1.9272900028   17.7971014139    6.6147097416
    29      1    0.6424290043   15.5723996438    6.6149397427
    30      1    1.9272900028   13.3476978738    6.6151599243
    31      1    1.9272900028    8.8982587266    6.6155798935
    32      1    1.9272900028    4.4488480651    6.6159896655
    33      1    0.6424290043    6.6735569566    6.6157898780
    34      1    0.6424300065    2.2241534165    6.6161796336
    35      1    0.6424290043   11.1230032252    6.6153699089
    36      1    1.9272900013   11.8643995665    8.7070999049
    37      1    0.6424290029   14.0891013365    8.7068797232
    38      1    1.9272900013   16.3139028063    8.7066599192
    39      1    0.6424290029   18.5385974550    8.7064197210
    40      1    0.6424300051    0.7408693520    8.7081097947
    41      1    1.9272900013    2.9655782435    8.7079198266
    42      1    0.6424290029    9.6397120392    8.7073098894
    43      1    0.6424290029    5.1902871349    8.7077196615
    44      1    1.9272900013    7.4150031478    8.7075198740
    45      1    1.9272899999   19.2801006175   10.7854097715
    46      1    0.6424290015   17.0553988475   10.7857096416
    47      1    1.9272899999   14.8305973776   10.7859098067
    48      1    0.6424290015   12.6059027290   10.7861099719
    49      1    1.9272899999   10.3812009589   10.7863097594
    50      1    0.6424290015    8.1564707032   10.7865099245
    51      1    1.9272899999    5.9317475690   10.7867097120
    52      1    0.6424300036    3.7070386775   10.7869098772
    53      1    1.9272900070   22.2466972364    0.3417332781
    54      1    0.6424280064   20.0221022876    0.3419870724
    55      1    0.6424280064   24.4713990065    0.3414670207
    56      1    0.6424280064   37.8194031056    0.3395137109
    57      1    1.9272900070   26.6961007765    0.3411864118
    58      1    0.6424280064   28.9207028467    0.3408899408
    59      1    1.9272900070   35.5947013356    0.3398898704
    60      1    1.9272900070   31.1453974953    0.3405764746
    61      1    0.6424280064   33.3700992654    0.3402437472
    62      1    1.9272900056   29.6622985877    2.4198996302
    63      1    0.6424280050   27.4375968176    2.4202096973
    64      1    1.9272900056   25.2129021690    2.4204899285
    65      1    0.6424280050   22.9882003990    2.4207599626
    66      1    1.9272900056   38.5609988466    2.4185098042
    67      1    0.6424280050   36.3362970765    2.4188897403
    68      1    1.9272900056   34.1116024279    2.4192496599
    69      1    0.6424280050   31.8870003577    2.4195899407
    70      1    1.9272900056   20.7634986289    2.4210197997
    71      1    0.6424280035   39.3026017089    4.5101797506
    72      1    1.9272900042   37.0778999389    4.5105698838
    73      1    0.6424280035   34.8531981688    4.5109396229
    74      1    1.9272900042   32.6285035202    4.5112799036
    75      1    0.6424280035   30.4038017502    4.5116096096
    76      1    0.6424280035   25.9543982101    4.5121999080
    77      1    1.9272900042   23.7297035615    4.5124699421
    78      1    0.6424290057   21.5050017914    4.5127399762
    79      1    1.9272900042   28.1790999801    4.5119098573
    80      1    0.6424280021   33.3700992611    6.6127296172
    81      1    1.9272900028   31.1453974911    6.6130597009
    82      1    0.6424280021   28.9207028425    6.6133697681
    83      1    0.6424280021   24.4711996026    6.6139498693
    84      1    1.9272900028   22.2464978325    6.6142097064
    85      1    1.9272900028   26.6959013726    6.6136696381
    86      1    0.6424280021   37.8195028012    6.6120097780
    87      1    1.9272900028   35.5948010312    6.6123798947
    88      1    0.6424290043   20.0218031839    6.6144699210
    89      1    1.9272900013   20.7632992250    8.7061799005
    90      1    0.6424290029   22.9880009950    8.7059196858
    91      1    1.9272900013   38.5611982419    8.7036699050
    92      1    0.6424280007   36.3363967721    8.7040498411
    93      1    1.9272900013   34.1117021234    8.7044097607
    94      1    1.9272900013   25.2127027651    8.7056496517
    95      1    0.6424280007   27.4374971135    8.7053697981
    96      1    1.9272900013   29.6621988836    8.7050699281
    97      1    0.6424280007   31.8869006536    8.7047496638
    98      1    0.6424279993   39.3029008041   10.7826097254
    99      1    1.9272899999   37.0780993342   10.7830096781
   100      1    0.6424279993   34.8532978644   10.7834096307
   101      1    1.9272899999   32.6286032158   10.7837098784
   102      1    0.6424279993   30.4038017459   10.7840097485
   103      1    1.9272899999   28.1790999759   10.7843099962
   104      1    1.9272899999   23.7295967360   10.7849097363
   105      1    0.6424290015   21.5048023875   10.7852099841
   106      1    0.6424279993   25.9542985060   10.7846098663
   107      1    1.9272900070   57.8409000732    0.3347093696
   108      1    0.6424280064   55.6162980030    0.3354023943
   109      1    1.9272900070   53.3917030542    0.3360482101
   110      1    1.9272900070   44.4933018947    0.3382258559
   111      1    0.6424280064   46.7178968435    0.3377363955
   112      1    1.9272900070   48.9424989137    0.3372121894
   113      1    0.6424280064   51.1671009839    0.3366502163
   114      1    0.6424280064   42.2686001247    0.3386839697
   115      1    1.9272900070   40.0439980544    0.3391122476
   116      1    0.6424280050   40.7856009168    2.4180996545
   117      1    0.6424280050   49.6843011757    2.4161599408
   118      1    1.9272900056   51.9089032459    2.4155896590
   119      1    1.9272900056   43.0103026868    2.4176596688
   120      1    0.6424280050   45.2349973354    2.4171996666
   121      1    1.9272900056   47.4595994057    2.4166996314
   122      1    0.6424280050   58.5828020350    2.4136099123
   123      1    0.6424280050   54.1334981947    2.4149797218
   124      1    1.9272900056   56.3581999648    2.4143199321
   125      1    0.6424280035   57.1001019265    4.5058996154
   126      1    1.9272900042   54.8754001565    4.5065797992
   127      1    0.6424280035   52.6506983865    4.5071999335
   128      1    1.9272900042   50.4259966164    4.5077898542
   129      1    0.6424280035   48.2013019678    4.5083299225
   130      1    1.9272900042   45.9766998976    4.5088397771
   131      1    0.6424280035   43.7519981276    4.5093197958
   132      1    1.9272900042   41.5273034789    4.5097597815
   133      1    1.9272900042   59.3248036966    4.5051797762
   134      1    1.9272900028   57.8419967669    6.6072299853
   135      1    1.9272900028   48.9430971084    6.6097199642
   136      1    0.6424280021   51.1677988784    6.6091598795
   137      1    0.6424280021   46.7184024597    6.6102396383
   138      1    1.9272900028   44.4937006897    6.6107298541
   139      1    0.6424280021   42.2689989197    6.6111796591
   140      1    1.9272900028   40.0441974498    6.6116098254
   141      1    1.9272900028   53.3926003483    6.6085597617
   142      1    0.6424280021   55.6173021183    6.6079199885
   143      1    0.6424280007   54.1345023101    8.7001398226
   144      1    0.6424280007   49.6848993703    8.7013298611
   145      1    1.9272900013   51.9097008402    8.7007497598
   146      1    1.9272900013   56.3592966585    8.6994796553
   147      1    0.6424280007   58.5839984285    8.6987696355
   148      1    1.9272900013   47.4601976003    8.7018597322
   149      1    0.6424280007   40.7859000120    8.7032597553
   150      1    0.6424280007   45.2354032519    8.7023597674
   151      1    1.9272900013   43.0107014818    8.7028197696
   152      1    1.9272899999   54.8763971504   10.7790097740
   153      1    0.6424279993   52.6516028020   10.7796098918
   154      1    1.9272899999   50.4268013321   10.7802096319
   155      1    0.6424279993   48.2019998623   10.7807096672
   156      1    1.9272899999   45.9771983924   10.7813097849
   157      1    0.6424279993   43.7523969226   10.7817097376
   158      1    1.9272899999   41.5276025741   10.7822097728
   159      1    0.6424279993   57.1012983201   10.7783099513
   160      1    1.9272899999   59.3260997900   10.7776097510
   161      1    0.6424280064   60.0655021434    0.3339653595
   162      1    1.9272900070   62.2900970922    0.3331662096
   163      1    0.6424280064   64.5145994626    0.3323077655
   164      1    0.6424270042   77.8616991420    0.3256245154
   165      1    1.9272900070   75.6371967716    0.3269501374
   166      1    1.9272900070   66.7392015328    0.3313851174
   167      1    0.6424280064   68.9636967818    0.3303941111
   168      1    1.9272900070   71.1881991522    0.3293283261
   169      1    0.6424270042   73.4127015226    0.3281820973
   170      1    0.6424280050   67.4813028942    2.4102199455
   171      1    1.9272900056   69.7058978431    2.4092096780
   172      1    1.9272900056   74.1551019835    2.4069598972
   173      1    1.9272900056   78.6041993027    2.4043498192
   174      1    0.6424270028   76.3795972325    2.4056996121
   175      1    0.6424270028   71.9304999133    2.4081299192
   176      1    0.6424280050   63.0320987538    2.4120399377
   177      1    1.9272900056   60.8073969838    2.4128496624
   178      1    1.9272900056   65.2567008240    2.4111599664
   179      1    0.6424280035   61.5493986454    4.5043998874
   180      1    1.9272900042   63.7741004154    4.5035697685
   181      1    0.6424280035   65.9988021855    4.5026799778
   182      1    1.9272900042   77.1220973932    4.4970897050
   183      1    0.6424270014   74.8974027446    4.4983696290
   184      1    1.9272900042   72.6728006743    4.4995698645
   185      1    0.6424280035   70.4480989043    4.5006798370
   186      1    1.9272900042   68.2234968341    4.5017097433
   187      1    0.6424280021   60.0667982368    6.6064897519
   188      1    1.9272900028   62.2915000068    6.6056996660
   189      1    0.6424280021   64.5162017768    6.6048397112
   190      1    1.9272900028   66.7410032467    6.6039299039
   191      1    1.9272900028   75.6400026051    6.5995198502
   192      1    1.9272900028   71.1904993652    6.6018799106
   193      1    0.6424269999   73.4152011352    6.6007397246
   194      1    0.6424269999   77.8646972537    6.5981998932
   195      1    0.6424280021   68.9656978953    6.6029396529
   196      1    1.9272900013   78.6073968141    8.6895099200
   197      1    0.6424269985   76.3826024656    8.6908597129
   198      1    0.6424280007   63.0336013682    8.6971996609
   199      1    0.6424280007   67.4831971865    8.6953796687
   200      1    1.9272900013   65.2584028381    8.6963196896
   201      1    1.9272900013   74.1577012959    8.6921196204
   202      1    0.6424280007   71.9328998261    8.6932896424
   203      1    1.9272900013   69.7080983562    8.6943697788
   204      1    1.9272900013   60.8087998984    8.6980199603
   205      1    1.9272899999   63.7758024295   10.7760099404
   206      1    0.6424279993   61.5510009596   10.7768098457
   207      1    1.9272899999   77.1253020260   10.7694097778
   208      1    0.6424269971   74.9003011565   10.7707097183
   209      1    1.9272899999   72.6753999868   10.7719099539
   210      1    0.6424279993   70.4504988171   10.7730097292
   211      1    1.9272899999   68.2255976474   10.7741098822
   212      1    0.6424279993   66.0007035992   10.7750098700
   213      1    1.9272900070   84.5349997321    0.3210154295
   214      1    1.9272900327   88.9837979519    0.3172999111
   215      1    0.6424270299   91.2081009226    0.3153001479
   216      1    0.6424270042   82.3105970615    0.3226654702
   217      1    1.9272900070   80.0862015124    0.3241991884
   218      1    1.9272900327   93.4325035932    0.3130998419
   219      1    0.6424270299   95.6567994425    0.3107001261
   220      1    1.9272900327   97.8810027135    0.3080998675
   221      1    0.6424270299   86.7594024027    0.3191999694
   222      1    0.6424270028   80.8287016731    2.4028897466
   223      1    1.9272900056   83.0533037433    2.4013299691
   224      1    0.6424270028   98.6245995722    2.3864898002
   225      1    1.9272900056   96.4001969016    2.3890998783
   226      1    0.6424270028   94.1758013525    2.3915298077
   227      1    0.6424270028   85.2777989923    2.3996497148
   228      1    1.9272900056   87.5023013627    2.3978297226
   229      1    0.6424270028   89.7268037331    2.3958896313
   230      1    1.9272900056   91.9512989821    2.3937897856
   231      1    0.6424270014   97.1439005816    4.4800998379
   232      1    1.9272900042   94.9191988116    4.4825898169
   233      1    0.6424270014   92.6945967413    4.4848996472
   234      1    1.9272900042   90.4700017925    4.4870399037
   235      1    0.6424270014   88.2453997223    4.4890396668
   236      1    1.9272900042   86.0206979523    4.4908898727
   237      1    0.6424270014   83.7961030035    4.4926097823
   238      1    1.9272900042   81.5714012334    4.4942099705
   239      1    0.6424270014   79.3467991632    4.4956998790
   240      1    1.9272900028   97.8878036612    6.5807896793
   241      1    0.6424269999   95.6630021913    6.5833397078
   242      1    1.9272900028   93.4382007215    6.5857099654
   243      1    1.9272900028   80.0894987236    6.5967798536
   244      1    0.6424269999   86.7638034333    6.5918497482
   245      1    0.6424269999   82.3143001934    6.5952597315
   246      1    1.9272900028   84.5390019635    6.5936096908
   247      1    0.6424269999   91.2133992516    6.5879098937
   248      1    1.9272900028   88.9885977818    6.5899496899
   249      1    0.6424269985   98.6318990190    8.6716397040
   250      1    1.9272900014   87.5070014928    8.6829898234
   251      1    0.6424269985   85.2821003231    8.6847996185
   252      1    1.9272900014   91.9569035319    8.6789396893
   253      1    0.6424269985   89.7320023623    8.6810399127
   254      1    0.6424269985   94.1818972800    8.6766899085
   255      1    1.9272900014   96.4068981495    8.6742599791
   256      1    0.6424269985   80.8322979837    8.6880498474
   257      1    1.9272900014   83.0571991534    8.6864896922
   258      1    0.6424269971   97.1509009289   10.7523096311
   259      1    1.9272899999   94.9257006598   10.7548098071
   260      1    1.9272899999   90.4754995212   10.7593097464
   261      1    0.6424269971   88.2503989519   10.7613098872
   262      1    1.9272899999   86.0252983825   10.7632099455
   263      1    0.6424269971   83.8002975130   10.7649098386
   264      1    1.9272899999   81.5752966435   10.7665096491
   265      1    0.6424269971   79.3503028955   10.7680097547
   266      1    0.6424269971   92.7006000905   10.7572099006
   267      1    1.9272900328  115.6740021964    0.2792001739
   268      1    0.6424310387  117.8970019481    0.2741998218
   269      1    1.9272900328  111.2260015753    0.2880999697
   270      1    0.6424270299  100.1049994634    0.3053999039
   271      1    0.6424280321  109.0019977040    0.2920998737
   272      1    1.9272900328  106.7780009541    0.2957999077
   273      1    0.6424290343  113.4499983251    0.2837998180
   274      1    0.6424270299  104.5539970828    0.2992000716
   275      1    1.9272900328  102.3290033347    0.3024000704
   276      1    1.9272900056  100.8490022428    2.3836799347
   277      1    0.6424270028  103.0729989927    2.3806498875
   278      1    1.9272900056  105.2979998622    2.3773898392
   279      1    0.6424290072  116.4190019741    2.3569699723
   280      1    1.9272900057  114.1949981028    2.3616798961
   281      1    0.6424280050  107.5220037335    2.3738899704
   282      1    1.9272900056  109.7460004834    2.3701098704
   283      1    0.6424280050  111.9710013529    2.3660499168
   284      1    1.9272900042  117.1649987499    4.4472198791
   285      1    0.6424280036  114.9410020000    4.4520298855
   286      1    1.9272900042  112.7160011305    4.4565098082
   287      1    0.6424280036  110.4910002610    4.4606698444
   288      1    1.9272900042  108.2670035111    4.4645296328
   289      1    0.6424270014  106.0420026416    4.4681197647
   290      1    1.9272900042  103.8179987703    4.4714496820
   291      1    0.6424270014  101.5929979008    4.4745499758
   292      1    1.9272900042   99.3685026518    4.4774297103
   293      1    0.6424269999  100.1129968089    6.5780496828
   294      1    1.9272900028  111.2369970368    6.5608698476
   295      1    0.6424270000  113.4619979063    6.5566097289
   296      1    1.9272900028  115.6869987758    6.5520199042
   297      1    0.6424280022  117.9110026471    6.5470799793
   298      1    0.6424269999  109.0120032887    6.5648297186
   299      1    1.9272900028  106.7870024192    6.5685097361
   300      1    0.6424269999  104.5620015497    6.5719299165
   301      1    1.9272900028  102.3370006802    6.5750997016
   302      1    0.6424269985  116.4330026730    8.6420998595
   303      1    1.9272900014  114.2080018035    8.6468097833
   304      1    0.6424269985  111.9830009340    8.6511896234
   305      1    1.9272900014  100.8569995883    8.6688298384
   306      1    0.6424269985  103.0820004578    8.6657997912
   307      1    1.9272900014  105.3070013273    8.6625397429
   308      1    0.6424269985  107.5320021968    8.6590296770
   309      1    1.9272900014  109.7570030663    8.6552499547
   310      1    1.9272900000  117.1800035684   10.7192098683
   311      1    0.6424269971  114.9539985793   10.7241097601
   312      1    1.9272900000  112.7280007116   10.7286096994
   313      1    0.6424269971  110.5029998421   10.7327096860
   314      1    1.9272900000  108.2770019744   10.7366098851
   315      1    0.6424269971  106.0520011049   10.7403099190
   316      1    1.9272900000  103.8270002354   10.7436096227
   317      1    0.6424269971  101.6010023677   10.7467099165
   318      1    1.9272899999   99.3762008979   10.7496096675
   319      1    1.9272900057  118.6429987240    2.3519099483
   320      1    1.9272900014  118.6580035425    8.6370296384
   321      1    1.9272900328  120.1209986980    0.2688999773
   322      1    0.6424360496  122.3450025693    0.2631000976
   323      1    1.9273000290  124.5689993192    0.2568998875
   324      1    0.6424510311  126.7919990709    0.2503001026
   325      1    0.6426010257  135.6850021973    0.2180999500
   326      1    1.9273900463  133.4620024456    0.2270998284
   327      1    0.6424900395  131.2390026939    0.2353998842
   328      1    1.9273300433  129.0160029422    0.2430998221
   329      1    1.9275800514  137.9080019490    0.2084999537
   330      1    0.6425010108  134.2109973374    2.3037996874
   331      1    1.9274100116  136.4350012087    2.2946797099
   332      1    0.6424380012  125.3150032165    2.3342697333
   333      1    1.9273000019  127.5389999663    2.3274697832
   334      1    0.6424550128  129.7630038377    2.3201599785
   335      1    1.9273300162  131.9870005875    2.3122798918
   336      1    0.6424269971  119.4049973165   10.7140097287
   337      1    0.6424320138  120.8670025953    2.3464499717
   338      1    1.9272900057  123.0909993452    2.3405896648
   339      1    0.6424689906  137.1850002202    4.3834499053
   340      1    1.9273099967  134.9610034703    4.3927896868
   341      1    0.6424430108  132.7360026008    4.4014696787
   342      1    1.9273000005  130.5119987295    4.4095299140
   343      1    0.6424339910  128.2869978600    4.4170198674
   344      1    1.9272900043  126.0630011101    4.4239799496
   345      1    0.6424300080  123.8389972388    4.4304498161
   346      1    1.9272900042  121.6140034907    4.4364498609
   347      1    0.6424290058  119.3899996194    4.4420299366
   348      1    1.9272800066  129.0359998732    6.5161299147
   349      1    0.6424200103  131.2610007427    6.5084496156
   350      1    1.9272700104  133.4860016122    6.5001797735
   351      1    0.6424040010  135.7110024817    6.4912897970
   352      1    1.9272500180  137.9360033512    6.4817098173
   353      1    1.9272900028  120.1360035166    6.5417699377
   354      1    0.6424270000  122.3609972647    6.5360497464
   355      1    1.9272900028  124.5859981342    6.5298899471
   356      1    0.6424259978  126.8109990037    6.5232599485
   357      1    1.9272800052  127.5600010169    8.6125796539
   358      1    0.6424160002  129.7859988846    8.6052498326
   359      1    1.9272700090  132.0109997541    8.5973697460
   360      1    0.6423940034  134.2369976218    8.5888797222
   361      1    1.9272299985  136.4630026109    8.5797397282
   362      1    0.6424239920  125.3340031492    8.6193799817
   363      1    1.9272900000  121.6310023056   10.7084096365
   364      1    1.9272900014  123.1090022797    8.6256999131
   365      1    0.6424269985  120.8840014102    8.6315798589
   366      1    0.6423530149  137.2139986205   10.6550097282
   367      1    1.9272400190  134.9880007528   10.6644099370
   368      1    0.6424019938  132.7609987655   10.6731099454
   369      1    1.9272700076  130.5350008978   10.6812098360
   370      1    0.6424190053  128.3090030301   10.6888096914
   371      1    0.6424249928  123.8570001733   10.7023098867
   372      1    1.9272800038  126.0829980410   10.6958098066
   373      1    0.6429110366  140.1310017007    0.1982001348
   374      1    1.9295500498  146.7989968362    0.1621001607
   375      1    0.6462200388  149.0209995897    0.1482000127
   376      1    0.6719110411  157.9090034823    0.0816998618
   377      1    1.9450000516  155.6870007288    0.0999998664
   378      1    1.9336300449  151.2430023432    0.1333001720
   379      1    0.6530390466  153.4649979753    0.1172000957
   380      1    0.6437800387  144.5770012041    0.1749998606
   381      1    1.9281000341  142.3540014524    0.1869999503
   382      1    0.6426300107  138.6580009604    2.2848599097
   383      1    1.9276200091  140.8819977103    2.2742896789
   384      1    0.6429910049  143.1049974620    2.2629097235
   385      1    1.9282300091  145.3290013333    2.2506596162
   386      1    0.6549080022  156.4440000919    2.1741697135
   387      1    0.6468559916  151.9980005884    2.2080697592
   388      1    0.6440049906  147.5520010850    2.2374796851
   389      1    1.9299300071  149.7750008367    2.2233098807
   390      1    1.9347200157  154.2210003401    2.1916996488
   391      1    1.9314499948  157.2020035745    4.2603596667
   392      1    0.6448790022  154.9779997032    4.2781498167
   393      1    1.9287399943  152.7549999515    4.2948398137
   394      1    0.6432960035  150.5310032016    4.3104096412
   395      1    1.9278100128  148.3060023321    4.3249099070
   396      1    0.6427389911  146.0819984608    4.3383897082
   397      1    1.9274700132  143.8580017109    4.3509298661
   398      1    0.6425399920  141.6339978395    4.3625798557
   399      1    1.9273600034  139.4089969700    4.3733997263
   400      1    0.6423590052  140.1620012189    6.4713998013
   401      1    1.9271699970  142.3870020884    6.4603098965
   402      1    0.6378570109  157.9649991695    6.3556499587
   403      1    0.6422310075  144.6120029579    6.4483698563
   404      1    1.9263400033  151.2880025646    6.4068299221
   405      1    0.6408370118  153.5130034341    6.3908699614
   406      1    1.9245999948  155.7390013018    6.3737996507
   407      1    1.9269599995  146.8370038274    6.4355098118
   408      1    0.6418680090  149.0619975755    6.4216897299
   409      1    0.6423299917  138.6880034804    8.5699097308
   410      1    0.6402040114  152.0459989258    8.4929598259
   411      1    1.9235600022  154.2730009131    8.4765198465
   412      1    0.6361719930  156.5000029004    8.4588796315
   413      1    1.9271200145  140.9140013481    8.5593198613
   414      1    0.6421490063  143.1399992158    8.5479297088
   415      1    1.9268199998  145.3670012031    8.5356599626
   416      1    0.6416389941  147.5929990708    8.5224596373
   417      1    1.9259600174  149.8189969385    8.5082497998
   418      1    1.9192700082  157.2600003794   10.5304099423
   419      1    0.6376450062  155.0320013939   10.5486098643
   420      1    1.9244400012  152.8040024084   10.5655098459
   421      1    0.6407280015  150.5770004211   10.5813096745
   422      1    1.9262700013  148.3490014356   10.5959096451
   423      1    0.6418240125  146.1219994483   10.6095099231
   424      1    1.9269300080  143.8949974610   10.6222098355
   425      1    0.6422139931  141.6680025951   10.6339096775
   426      1    1.9271599979  139.4410006078   10.6448099919
   427      1    0.6289939940  159.4870023668   10.5111098672
   428      1    1.4325300339  175.8350025242    0.2816999722
   429      1    2.5660000408  173.5759968950    0.1378998161
   430      1    1.1115200279  171.3060029213    0.0383999850
   431      1    2.2435800296  169.0469972921    0.0000000000
   432      1    0.8477110277  166.8069987211    0.0046000218
   433      1    2.0568500494  164.5769986178    0.0217998734
   434      1    1.9761000309  160.1309991144    0.0621999992
   435      1    0.7225170418  162.3530018679    0.0419999363
   436      1    1.9483000070  158.6660028454    2.1554697562
   437      1    0.1232600133  176.4839984971    2.4029399767
   438      1    1.2620700002  174.2510002780    2.2404798964
   439      1    2.3729199996  172.0090005893    2.1201296544
   440      1    0.9251590066  169.7740012523    2.0727898405
   441      1    0.6779099986  160.8879984775    2.1356696459
   442      1    1.9874200038  163.1100012310    2.1150798275
   443      1    2.0991300032  167.5510015006    2.0769298601
   444      1    0.7444559952  165.3309998649    2.0945496809
   445      1    1.3940900077  177.0869972462    4.5445299791
   446      1    2.5466100136  174.8679997303    4.3766797911
   447      1    1.0650700061  172.6700032691    4.2271598214
   448      1    2.1444800009  170.4769989202    4.1686198231
   449      1    0.7437879952  168.2860028106    4.1716596897
   450      1    1.9748199994  166.0820029959    4.1854499357
   451      1    1.9400300057  161.6469989583    4.2221896829
   452      1    0.6496009903  159.4250033262    4.2415898405
   453      1    0.6662139958  163.8670005940    4.2029696739
   454      1    0.1092430128  176.0160004206    6.5869098233
   455      1    1.5216500101  173.7500015612    6.4289296656
   456      1    0.4120589936  171.4420005921    6.3207396455
   457      1    1.8228499971  169.1500014440    6.2857998740
   458      1    0.5928149927  166.8919999343    6.2862696956
   459      1    1.9018700033  164.6520013634    6.2995198733
   460      1    0.6285709953  162.4200001423    6.3174297447
   461      1    1.9194200056  160.1909970372    6.3366497537
   462      1    1.8978500097  163.1860009747    8.3999797136
   463      1    1.4081399977  176.6200032893    8.7284998257
   464      1    0.2624660075  174.3849968309    8.5584296928
   465      1    1.9167999952  158.7269977663    8.4400497557
   466      1    1.6856100126  172.1410031459    8.4253296860
   467      1    0.5007620100  169.8970023395    8.3712597910
   468      1    1.8439999952  167.6550026508    8.3672198539
   469      1    0.5930440047  165.4180021958    8.3808896231
   470      1    0.6248570039  160.9560008714    8.4202198095
   471      1    0.1476889949  177.2689992623   10.8497099942
   472      1    1.5666300181  175.0290006915   10.6849098699
   473      1    0.3968099924  172.8060009399   10.5419099968
   474      1    1.7672700188  170.5940037754   10.4651096492
   475      1    0.5416570135  168.3810024914   10.4453099166
   476      1    1.8654099975  166.1630019735   10.4531099371
   477      1    0.6049929935  163.9400022218   10.4707097414
   478      1    1.9048200128  161.7139972327   10.4909098043
   479      1    0.6344089908  195.8440014070    0.6010566747
   480      1    1.9138500139  193.6160024215    0.6203846973