
19200 atoms
1 atom types
   0.0000000000    2.5697195300 xlo xhi
   0.0000000000  712.1415671254 ylo yhi
   0.0000000000  377.6700984583 zlo zhi
   0.0000000000   -0.0000000257   -0.0000000257 xy xz yz

Atoms # atomic

     1      1    0.6431810074   21.5102004238   60.9073968466
     2      1    1.9279500099    5.9334068620   60.9154978702
     3      1    0.6430980054    8.1586712239   60.9142968793
     4      1    1.9279400137    1.4828781382   60.9177978811
     5      1    0.6430850027    3.7081496215   60.9165968902
     6      1    1.9281100006   28.1860006308   60.9039978157
     7      1    1.9287600112   59.3394025976   60.8883962640
     8      1    1.9286200129   54.8890020594   60.8904961097
     9      1    0.6438290135   57.1142023285   60.8893970897
    10      1    1.9285100032   50.4385018213   60.8926979264
    11      1    0.6437039967   52.6637020904   60.8915989064
    12      1    1.9283999935   45.9880015832   60.8949979373
    13      1    0.6433409981   34.8618008379   60.9005987848
    14      1    0.6435940127   48.2133015521   60.8938989173
    15      1    1.9283100019   41.5375013451   60.8971997540
    16      1    0.6434980080   43.7628013141   60.8960969573
    17      1    1.9282400027   37.0870011070   60.8994997649
    18      1    0.6434130017   39.3123010760   60.8982987739
    19      1    1.9281700036   32.6365008689   60.9016978048
    20      1    1.9305100160   43.0200020526   58.7969989966
    21      1    0.6445379993   14.0917006551   58.8117961111
    22      1    0.6455219963   40.7947020837   58.7980980166
    23      1    1.9302600080   38.5695018145   58.7992990075
    24      1    1.9311400085   51.9209028290   58.7924971691
    25      1    0.6461050143   49.6957025598   58.7936981600
    26      1    0.6457940011   45.2452023217   58.7958962000
    27      1    1.9293600151   11.8664006862   58.8129971020
    28      1    2.0262799976   56.3455024821    2.1121162489
    29      1    0.6796199941    9.6136832707    2.1363664459
    30      1    0.7365650046   54.1201028133    2.1132568126
    31      1    1.9630700109    7.3883690590    2.1375258932
    32      1    0.7465299914   58.5708024511    2.1109681318
    33      1    0.6745730135    0.7124477879    2.1410080115
    34      1    1.9605500155    2.9377619996    2.1398485643
    35      1    0.6769060105    5.1630619686    2.1386891171
    36      1    0.6863089997   18.5148973894    2.1317286571
    37      1    0.7000789960   31.8667969029    2.1247870807
    38      1    1.9877500085   34.0920968719    2.1236276335
    39      1    0.7058560082   36.3175036621    2.1224795164
    40      1    1.9822899969   29.6414969340    2.1259389745
    41      1    1.9774400110   25.1908969961    2.1282578689
    42      1    1.9731300003   20.7401973583    2.1305692099
    43      1    0.6903580040   22.9654973273    2.1294173161
    44      1    0.6949320020   27.4161969650    2.1270984217
    45      1    1.9693300019   16.2895974204    2.1328881043
    46      1    1.9659900089   11.8389974825    2.1352069987
    47      1    2.0083199966   47.4441032067    2.1167087173
    48      1    2.0168200120   51.8948028444    2.1144087064
    49      1    0.7275989961   49.6694031756    2.1155568235
    50      1    0.7123229900   40.7681036000    2.1201681754
    51      1    1.9938600049   38.5428036310    2.1213162925
    52      1    0.6827429999   14.0642974515    2.1340475515
    53      1    0.7195460091   45.2188032377    2.1178568344
    54      1    2.0006900110   42.9934035689    2.1190087282
    55      1    1.9843000057   32.6096032858    4.2148473959
    56      1    0.7082539932   39.2856028925    4.2113879378
    57      1    1.9900099996   37.0603029235    4.2125360549
    58      1    0.7150099914   43.7362028304    4.2090765968
    59      1    1.9963999926   41.5109028614    4.2102284906
    60      1    0.7225500111   48.1869024681    4.2067690325
    61      1    0.7022139959   34.8349032547    4.2136992788
    62      1    2.0035400097   45.9616024992    4.2079284797
    63      1    0.7309519917   52.6376021058    4.2044690216
    64      1    2.0114999986   50.4122024371    4.2056171387
    65      1    0.7403009911   57.0883017436    4.2021765641
    66      1    2.0203600061   54.8629020748    4.2033171278
    67      1    2.0302199943   59.3136017125    4.2010284470
    68      1    1.9792200042   28.1590033479    4.2171662903
    69      1    0.6753739950    3.6805470183    4.2299164328
    70      1    1.9591300140    1.4552399279    4.2310796567
    71      1    0.6778580143    8.1311683204    4.2275975384
    72      1    1.9614300158    5.9058612300    4.2287569856
    73      1    0.6807320144   12.5817967440    4.2252786440
    74      1    1.9641000058   10.3564967750    4.2264380912
    75      1    0.6840270115   17.0323966819    4.2229559729
    76      1    1.9671799945   14.8070967129    4.2241191968
    77      1    0.6877800098   21.4829966198    4.2206370785
    78      1    1.9706999963   19.2576966508    4.2217965257
    79      1    0.6920309940   25.9337033789    4.2183295142
    80      1    1.9746999960   23.7082965887    4.2194776313
    81      1    0.6968250114   30.3843033168    4.2160068431
    82      1    0.6891799929   24.4511029716    6.3194895536
    83      1    0.7341659912   55.6057013362    6.3033063899
    84      1    1.9720100135   22.2258030027    6.3206376707
    85      1    0.7105480074   42.2537021229    6.3102290828
    86      1    0.6852480136   20.0005030337    6.3217971179
    87      1    1.9683199990   17.7752030647    6.3229565651
    88      1    0.7042529911   37.8031021850    6.3125366471
    89      1    0.6986320123   33.3524025472    6.3148479881
    90      1    1.9809200020   31.1271025783    6.3160074353
    91      1    1.9862199972   35.5777025162    6.3136960943
    92      1    0.6936259931   28.9018026093    6.3171668825
    93      1    2.0145400024   53.3804013673    6.3044582837
    94      1    1.9761999926   26.6765026404    6.3183263297
    95      1    2.0237600019   57.8311010050    6.3021696029
    96      1    1.9650799939   13.3246031268    6.3252792362
    97      1    0.7254279940   51.1550016985    6.3056177309
    98      1    0.7175809957   46.7044017606    6.3079177418
    99      1    1.9598200093    4.4233534011    6.3299170250
   100      1    0.6738719937    2.1980391893    6.3310764722
   101      1    1.9988299964   44.4790020918    6.3090771890
   102      1    0.6761290041    6.6486604915    6.3287575778
   103      1    0.6432780143   30.4113005998   60.9028987957
   104      1    0.6817860104   15.5499030958    6.3241160123
   105      1    1.9921700029   40.0284021539    6.3113885300
   106      1    0.6787570049   11.0993031579    6.3264386834
   107      1    1.9622500131    8.8739675819    6.3275981306
   108      1    2.0062600063   48.9297017296    6.3067696247
   109      1    0.7200140060   49.6725009910    8.4069477218
   110      1    2.0088300084   51.8978009600    8.4057996047
   111      1    0.7281530015   54.1232006287    8.4046477109
   112      1    2.0174200154   56.3485005977    8.4034995938
   113      1    0.7372130103   58.5739002665    8.4023477000
   114      1    1.9659900085   16.2927023572    8.4243092162
   115      1    0.6795959925   14.0674023883    8.4254686634
   116      1    1.9630200038   11.8421024193    8.4266281106
   117      1    0.6863930034   22.9686022641    8.4208384280
   118      1    1.9693800082   20.7433022951    8.4219865451
   119      1    0.6827720116   18.5180023262    8.4231459923
   120      1    1.9582399914    2.9408384508    8.4312658994
   121      1    0.6724069965    0.7155313604    8.4324291233
   122      1    0.6744410066    5.1661526626    8.4301064522
   123      1    0.6768289956    9.6167668433    8.4277875578
   124      1    1.9604500016    7.3914597529    8.4289470050
   125      1    2.0011200018   47.4472010220    8.4081071690
   126      1    0.7061779936   40.7712014154    8.4115666271
   127      1    1.9880300047   38.5459014464    8.4127260743
   128      1    0.7127150003   45.2218013533    8.4092590628
   129      1    1.9942199965   42.9965013843    8.4104185100
   130      1    0.7003369954   36.3205017776    8.4138892982
   131      1    0.6904969997   27.4193019018    8.4185195336
   132      1    1.9732400096   25.1939022331    8.4196789808
   133      1    1.9825200121   34.0952018087    8.4150374153
   134      1    0.6951279940   31.8699018397    8.4161968625
   135      1    1.9776000013   29.6446018708    8.4173563097
   136      1    1.9789300109   32.6127011012   10.5151966289
   137      1    0.7019449973   39.2886010080   10.5117975980
   138      1    1.9840300048   37.0633010391   10.5128966180
   139      1    0.7079979973   43.7393006458   10.5094975871
   140      1    1.9897499949   41.5140006768   10.5105966071
   141      1    0.7147649939   48.1900002835   10.5070993820
   142      1    0.6965430100   34.8380010701   10.5140976089
   143      1    1.9961500099   45.9646006147   10.5082965962
   144      1    0.7223189929   52.6406002214   10.5047993711
   145      1    2.0032999975   50.4153002524   10.5059965853
   146      1    0.7307380108   57.0912998591   10.5024993602
   147      1    2.0112700083   54.8659998902   10.5036965744
   148      1    2.0201600044   59.3166995279   10.5013965635
   149      1    1.9744000066   28.1621011633   10.5175986107
   150      1    0.6728120099    3.6836377122   10.5302996561
   151      1    1.9567200021    1.4583306219   10.5314968704
   152      1    0.6749660002    8.1342518930   10.5279996452
   153      1    1.9587099929    5.9089519240   10.5291968595
   154      1    0.6774790060   12.5849016808   10.5256996343
   155      1    1.9610400090   10.3596017118   10.5267986543
   156      1    0.6803780094   17.0355016187   10.5233996234
   157      1    1.9637400133   14.8102016497   10.5244986434
   158      1    0.6836960055   21.4861015566   10.5209976416
   159      1    1.9668399945   19.2608015876   10.5221986325
   160      1    0.6874679940   25.9367014945   10.5186976307
   161      1    1.9703800144   23.7114015255   10.5198986216
   162      1    0.6917350133   30.3874011322   10.5163976198
   163      1    1.9801600070   35.5808003316   12.6130973753
   164      1    0.7034410107   42.2567999383   12.6095963735
   165      1    1.9854300136   40.0314002695   12.6107973644
   166      1    0.7166800002   51.1580995139   12.6049963517
   167      1    1.9913400087   44.4820999072   12.6084973535
   168      1    0.7096930099   46.7073998762   12.6072963626
   169      1    0.6978570102   37.8061003005   12.6118963844
   170      1    0.6884600084   28.9048007249   12.6165983771
   171      1    1.9676200070   22.2289008180   12.6200993790
   172      1    0.6845449893   24.4542007870   12.6188983880
   173      1    1.9712999996   26.6795007560   12.6176973971
   174      1    1.9754600157   31.1302003937   12.6153973862
   175      1    0.6928820075   33.3555003626   12.6142983662
   176      1    2.0053299987   53.3833994828   12.6038973317
   177      1    0.7244750131   55.6086994518   12.6026963408
   178      1    1.9979499955   48.9326998451   12.6061973426
   179      1    2.0135600137   57.8340991206   12.6014991266
   180      1    0.6712429904    2.2011298833   12.6304966368
   181      1    1.9591199915    8.8770511544   12.6269994117
   182      1    0.6810940102   20.0036008491   12.6211983989
   183      1    1.9615700135   13.3277009422   12.6246994008
   184      1    1.9570300130    4.4264298523   12.6292994225
   185      1    1.9280599939   23.7355003928   60.9062978266
   186      1    0.6754380061   11.1024009733   12.6258966150
   187      1    0.6731709995    6.6517369426   12.6281966259
   188      1    0.6780699899   15.5530009112   12.6234984098
   189      1    1.9643899981   17.7783008801   12.6223993899
   190      1    0.7184359922   54.1261987443   14.7028970981
   191      1    0.7264570119   58.5767986822   14.7005970872
   192      1    2.0072000091   56.3514987133   14.7016961072
   193      1    1.9572799951    7.3945290827   14.7271963923
   194      1    0.6697350017    0.7186149330   14.7306973941
   195      1    0.6714449959    5.1692291137   14.7283973832
   196      1    1.9554100102    2.9439220233   14.7294964032
   197      1    0.6893569946   31.8728999553   14.7144991236
   198      1    1.9721299931   29.6475999864   14.7155981435
   199      1    0.6939219985   36.3235995930   14.7120971417
   200      1    1.9764300076   34.0982996241   14.7132981326
   201      1    1.9620299932   16.2958001726   14.7225963705
   202      1    0.6817339987   22.9717000795   14.7190991454
   203      1    1.9649700093   20.7464001105   14.7202963596
   204      1    0.6785920026   18.5211001416   14.7213991563
   205      1    0.6853089925   27.4223000174   14.7167991345
   206      1    1.9683199985   25.1970000484   14.7178981544
   207      1    0.7048069964   45.2247994688   14.7074971199
   208      1    1.9927999947   47.4501991376   14.7063980999
   209      1    1.9996000122   51.9007990755   14.7039961181
   210      1    0.6734759994    9.6198432944   14.7260973723
   211      1    0.7112449918   49.6754991066   14.7051971090
   212      1    1.9812699973   38.5488995620   14.7109981217
   213      1    0.6758490069   14.0705002037   14.7236991672
   214      1    0.6990540111   40.7741995309   14.7097971308
   215      1    1.9594800091   11.8451005349   14.7248963814
   216      1    1.9867100164   42.9994994999   14.7086981108
   217      1    1.9728599989   32.6156992168   16.8134988900
   218      1    0.6948410072   39.2916988234   16.8099978882
   219      1    1.9772799936   37.0662991547   16.8111988791
   220      1    0.7001149968   43.7422987613   16.8076978773
   221      1    1.9822600073   41.5169987924   16.8088988682
   222      1    0.7060239897   48.1928986992   16.8053978664
   223      1    0.6901449989   34.8409991857   16.8122978991
   224      1    1.9878499952   45.9675987303   16.8064968863
   225      1    0.7126330000   52.6435983370   16.8030978555
   226      1    1.9941000157   50.4181986682   16.8041968754
   227      1    0.7200120010   57.0941982749   16.8007978446
   228      1    2.0010800164   54.8688983059   16.8018968645
   229      1    2.0088699926   59.3194982438   16.7995968536
   230      1    1.9689299984   28.1650992788   16.8157989009
   231      1    0.6697889914    3.6867070420   16.8285981405
   232      1    1.9538600067    1.4614070730   16.8296971605
   233      1    0.6715930116    8.1373283441   16.8261961587
   234      1    1.9555099979    5.9120212537   16.8273971496
   235      1    0.6737189919   12.5878997964   16.8238961478
   236      1    1.9574700000   10.3625998274   16.8250971387
   237      1    1.9597700018   14.8131997653   16.8227971278
   238      1    0.6790359986   21.4891993720   16.8192961260
   239      1    1.9624199994   19.2638994030   16.8203989227
   240      1    0.6822849978   25.9397993099   16.8169961151
   241      1    1.9654699995   23.7144993409   16.8180989118
   242      1    0.6859750123   30.3903992478   16.8146961042
   243      1    0.6761910107   17.0385994341   16.8215961369
   244      1    1.9734600026   35.5837984472   18.9113996364
   245      1    0.6956219962   42.2596983540   18.9078986346
   246      1    1.9780000032   40.0343983851   18.9090996255
   247      1    0.7070719983   51.1609979296   18.9032986128
   248      1    1.9831099932   44.4849983230   18.9066976437
   249      1    0.7010230070   46.7103979917   18.9055986237
   250      1    0.6908080121   37.8090984161   18.9101986455
   251      1    0.6827370113   28.9078985403   18.9147986673
   252      1    1.9658700019   26.6825985713   18.9159996582
   253      1    1.9627300102   22.2318989336   18.9182996691
   254      1    0.6793910052   24.4572986024   18.9171968724
   255      1    1.9694300142   31.1331985092   18.9136996473
   256      1    0.6865289923   33.3584984782   18.9124986564
   257      1    1.9888200128   48.9356979607   18.9043976328
   258      1    1.9952200021   53.3862978986   18.9020976219
   259      1    0.7138330075   55.6115978676   18.9009986019
   260      1    2.0023599935   57.8368978365   18.8997976110
   261      1    1.9555600045    8.8801204841   18.9252978960
   262      1    0.6738920110   15.5559990268   18.9217968942
   263      1    0.6432250010   25.9608003617   60.9051988066
   264      1    1.9538199960    4.4295134248   18.9275979069
   265      1    0.6764529935   20.0065989647   18.9194968833
   266      1    0.6697889912    6.6548133938   18.9263969160
   267      1    0.6716789942   11.1053990888   18.9240969051
   268      1    1.9576000020   13.3306990578   18.9229978851
   269      1    0.6682020095    2.2041992130   18.9287988978
   270      1    1.9599899954   17.7812989957   18.9205996800
   271      1    1.9961400130   56.3542974292   20.9999983683
   272      1    0.7079279974   54.1289974602   21.0010973883
   273      1    0.6697290138    9.6229126242   21.0242976624
   274      1    0.7148239940   58.5795973981   20.9987973774
   275      1    1.9537200080    7.3975984124   21.0254986533
   276      1    0.6680639898    5.1722984434   21.0265976733
   277      1    0.6666839990    0.7216913841   21.0289996551
   278      1    1.9521999932    2.9469913531   21.0277986642
   279      1    0.6830760086   31.8758980709   21.0126994137
   280      1    0.6739870134   18.5240982572   21.0196976406
   281      1    1.9661700165   29.6505981019   21.0138966279
   282      1    0.6869570046   36.3265977086   21.0103994028
   283      1    1.9698199947   34.1011980398   21.0115966170
   284      1    1.9576600048   16.2987982882   21.0207966606
   285      1    1.9601199973   20.7493982261   21.0184966497
   286      1    0.6766270148   22.9746981951   21.0173976297
   287      1    0.6796449962   27.4252981330   21.0149994246
   288      1    1.9629500037   25.1999981640   21.0161966388
   289      1    1.9837799961   47.4530975534   21.0045983901
   290      1    1.9555300157   11.8481983503   21.0231986424
   291      1    0.7017590002   49.6783975223   21.0034993701
   292      1    1.9896199921   51.9036974913   21.0022983792
   293      1    0.6913310013   40.7771976465   21.0080993919
   294      1    1.9739400004   38.5518976776   21.0091984119
   295      1    0.6962470032   45.2277975844   21.0057993810
   296      1    1.9785800144   43.0024976155   21.0068984010
   297      1    0.6716960056   14.0734983192   21.0219976515
   298      1    1.9663400033   32.6186973323   23.1117973743
   299      1    0.6872439907   39.2945972392   23.1082963725
   300      1    1.9700700026   37.0692972702   23.1093991692
   301      1    0.6916970063   43.7451971771   23.1059963616
   302      1    1.9742700036   41.5198972081   23.1070991583
   303      1    0.6966970124   48.1957971150   23.1036963507
   304      1    0.6832890125   34.8439973013   23.1105963834
   305      1    1.9789900130   45.9704971460   23.1047991474
   306      1    0.7023010053   52.6463970529   23.1012981456
   307      1    1.9842800120   50.4210970839   23.1024991365
   308      1    0.7085709925   57.0969969908   23.0989981347
   309      1    1.9902099995   54.8716970219   23.1001991256
   310      1    1.9968400044   59.3222969598   23.0978991147
   311      1    1.9630500171   28.1680973944   23.1140973852
   312      1    0.6664160028    3.6897834931   23.1267984306
   313      1    1.9506500154    1.4644835241   23.1279994216
   314      1    0.6678669949    8.1403905524   23.1244984197
   315      1    1.9519700032    5.9150905835   23.1256994107
   316      1    0.6696009903   12.5909976117   23.1221984088
   317      1    1.9535600172   10.3656976428   23.1233993998
   318      1    0.6716350004   17.0415975496   23.1198983979
   319      1    1.9554399983   14.8162975807   23.1209974179
   320      1    1.9576300161   19.2668975186   23.1186974070
   321      1    0.6766999946   25.9427974255   23.1151964052
   322      1    1.9601600077   23.7174974565   23.1163973961
   323      1    0.6797869987   30.3933973634   23.1128963943
   324      1    0.6739930007   21.4921974876   23.1175983870
   325      1    1.9663900099   35.5866968629   25.2095961498
   326      1    0.6873749949   42.2625967698   25.2061971189
   327      1    1.9701700159   40.0372968008   25.2072961389
   328      1    0.6918880134   46.7131967077   25.2038971080
   329      1    0.6969530077   51.1637966456   25.2015970971
   330      1    1.9744299942   44.4878967387   25.2049961280
   331      1    0.6833619924   37.8119968319   25.2084971298
   332      1    0.6766620140   28.9108966559   25.2130971516
   333      1    1.9575100100   22.2349967490   25.2165981535
   334      1    0.6739000024   24.4602967180   25.2153971625
   335      1    1.9630399950   31.1361966248   25.2119981317
   336      1    1.9600900084   26.6855966869   25.2142981426
   337      1    0.6798040101   33.3613968939   25.2107971407
   338      1    1.9845700047   53.3890966145   25.2003961062
   339      1    0.7026280020   55.6143965835   25.1991988920
   340      1    1.9792100066   48.9384966766   25.2026961171
   341      1    1.9905700171   57.8397036739   25.1980960953
   342      1    1.9516700140    8.8831684496   25.2235963804
   343      1    1.9533200052   13.3337968732   25.2211981752
   344      1    0.6714870101   20.0096967800   25.2177991444
   345      1    1.9502899975    4.4325685117   25.2258963913
   346      1    0.6693960036   15.5590968421   25.2200991553
   347      1    0.6648409958    2.2072685428   25.2269991880
   348      1    0.6676040097   11.1084969042   25.2223991662
   349      1    1.9552600150   17.7843968111   25.2188981643
   350      1    1.9280200090   19.2850001547   60.9085978375
   351      1    0.6660910102    6.6578684807   25.2246991771
   352      1    0.6969949968   54.1318032976   27.2994978436
   353      1    1.9846400037   56.3571032665   27.2982968526
   354      1    0.7027169913   58.5823035357   27.2971978327
   355      1    1.9498799986    7.4006606207   27.3236989435
   356      1    0.6633360138    0.7247607138   27.3271961686
   357      1    0.6657040103    9.6259605896   27.3225961468
   358      1    0.6643980017    5.1753606517   27.3248961577
   359      1    1.9487000091    2.9500606828   27.3260971486
   360      1    0.6764999931   31.8789033079   27.3109978981
   361      1    1.9599099994   29.6536033389   27.3121988890
   362      1    0.6796819997   36.3295032458   27.3086978872
   363      1    1.9628999966   34.1042032768   27.3097969071
   364      1    1.9530099941   16.3018035252   27.3190989217
   365      1    1.9550000106   20.7524034631   27.3167989108
   366      1    0.6712420129   22.9777034320   27.3155979199
   367      1    0.6691070128   18.5271034941   27.3179961250
   368      1    0.6736969944   27.4283033700   27.3132979090
   369      1    1.9572900162   25.2030034010   27.3144988999
   370      1    1.9744000054   47.4559033907   27.3028968744
   371      1    1.9513099962   11.8513032871   27.3213989326
   372      1    0.6918860089   49.6812033597   27.3017978545
   373      1    1.9792299989   51.9065033286   27.3005968635
   374      1    0.6873310011   45.2306034218   27.3040978654
   375      1    1.9662899963   38.5548032147   27.3074968962
   376      1    0.6832780138   40.7801031837   27.3063978763
   377      1    0.6672669908   14.0765035562   27.3202961359
   378      1    1.9701000166   43.0054031526   27.3051968853
   379      1    0.6794060117   39.2975027763   29.4065986336
   380      1    1.9626100036   37.0722028074   29.4076976536
   381      1    0.6830239969   43.7481027143   29.4042986227
   382      1    1.9660199957   41.5228027453   29.4053976427
   383      1    0.6870960002   48.1986029523   29.4019986118
   384      1    1.9698600047   45.9733029834   29.4030976318
   385      1    1.9596000140   32.6216028695   29.4100996354
   386      1    0.6916710003   52.6492028902   29.3996986009
   387      1    1.9741800116   50.4239029213   29.4007976209
   388      1    0.6967990041   57.0997031283   29.3973985900
   389      1    1.9790200012   54.8745028592   29.3984976100
   390      1    1.9844499985   59.3250030973   29.3961975991
   391      1    0.6762010061   34.8469028384   29.4088986445
   392      1    0.6627820078    3.6928528228   29.4250969150
   393      1    1.9471699980    1.4675528539   29.4262979059
   394      1    0.6638950047    8.1434385179   29.4227969041
   395      1    1.9481700043    5.9181527918   29.4238997008
   396      1    0.6652450069   12.5940028487   29.4204968932
   397      1    1.9494000006   10.3687028798   29.4215996899
   398      1    1.9508700086   14.8193028177   29.4192996790
   399      1    0.6687229938   21.4952027245   29.4157986772
   400      1    0.6708900125   25.9458026624   29.4134986663
   401      1    1.9546299966   23.7205026935   29.4146996572
   402      1    0.6733730040   30.3964026004   29.4111986554
   403      1    1.9569500164   28.1711026314   29.4123996463
   404      1    0.6668490001   17.0446027866   29.4181968823
   405      1    1.9526100171   19.2699027556   29.4169996681
   406      1    0.6789619897   42.2655023069   31.5044993800
   407      1    0.6682370083   24.4632022551   31.5136994236
   408      1    1.9521100010   22.2380019860   31.5148966378
   409      1    0.6912209909   55.6171027210   31.4975993473
   410      1    0.6663399899   20.0127020170   31.5159994345
   411      1    1.9503500001   17.7874020481   31.5171966487
   412      1    0.6729170072   33.3644021309   31.5090994018
   413      1    1.9564900108   31.1391021620   31.5102966160
   414      1    0.6757530010   37.8149023690   31.5067993909
   415      1    1.9785700175   57.8424026900   31.4963983564
   416      1    0.6704210129   28.9138021930   31.5113994127
   417      1    1.9591500046   35.5897020999   31.5078984109
   418      1    1.9737300022   53.3918027521   31.4986983673
   419      1    1.9541499985   26.6885022241   31.5125966269
   420      1    1.9488500034   13.3368021102   31.5194966596
   421      1    0.6621730098    6.6609306890   31.5229976614
   422      1    1.9465400054    4.4356378414   31.5240966814
   423      1    1.9655800082   44.4908022759   31.5032983891
   424      1    0.6612399960    2.2103378725   31.5252976723
   425      1    0.6866510017   51.1666024829   31.4998993582
   426      1    1.9475799966    8.8862235365   31.5217966705
   427      1    0.6647090146   15.5621020791   31.5183976396
   428      1    0.6633250151   11.1115021412   31.5206976505
   429      1    1.9621700161   40.0402023380   31.5055984000
   430      1    1.9694200172   48.9413025140   31.5009983782
   431      1    0.6825810028   46.7160025450   31.5021993691
   432      1    0.6819319943   49.6840020756   33.6000963388
   433      1    0.6859760133   54.1345023137   33.5977963279
   434      1    1.9687600103   51.9093020446   33.5988991246
   435      1    1.9730400066   56.3598022826   33.5966973079
   436      1    0.6905150117   58.5850025518   33.5954963170
   437      1    1.9482100146   16.3049013406   33.6173974060
   438      1    0.6626809918   14.0796013716   33.6185983969
   439      1    1.9469200154   11.8543014027   33.6196974169
   440      1    0.6657309919   22.9807015476   33.6138964042
   441      1    1.9497399999   20.7554015787   33.6150973951
   442      1    0.6640860117   18.5301016097   33.6161964151
   443      1    1.9449800056    2.9531300125   33.6242974387
   444      1    0.6597650026    0.7278371650   33.6254984296
   445      1    0.6605320125    5.1784228601   33.6231984187
   446      1    0.6615010023    9.6290014337   33.6208984078
   447      1    1.9458500099    7.4037085862   33.6219974278
   448      1    0.6751399943   40.7829018996   33.6046963606
   449      1    1.9585400044   38.5577016305   33.6057991573
   450      1    1.9649399937   47.4587021066   33.6011991355
   451      1    1.9615499940   43.0082018686   33.6034991464
   452      1    0.6783340015   45.2335018375   33.6023963497
   453      1    0.6723139966   36.3324016615   33.6069963715
   454      1    0.6676360021   27.4313014855   33.6115963933
   455      1    1.9535499945   29.6566014545   33.6104973733
   456      1    1.9515099970   25.2060015166   33.6127973842
   457      1    1.9558900068   34.1071016926   33.6081973624
   458      1    0.6698220111   31.8818017236   33.6092963824
   459      1    0.6715519976   39.3004011921   35.7048971179
   460      1    1.9551400084   37.0751012231   35.7060981089
   461      1    0.6743490088   43.7509014302   35.7025971070
   462      1    1.9577700135   41.5256014612   35.7037980980
   463      1    0.6775050098   48.2014016683   35.7002970961
   464      1    1.9607399926   45.9762013991   35.7014980871
   465      1    1.9528200142   32.6246009851   35.7083981198
   466      1    0.6810590090   52.6519019064   35.6979970852
   467      1    1.9640900074   50.4267016372   35.6991980762
   468      1    0.6850509912   57.1024021444   35.6956970743
   469      1    1.9678600173   54.8772018753   35.6968980653
   470      1    1.9720900069   59.3276024136   35.6945980544
   471      1    0.6690830110   34.8498012542   35.7071971288
   472      1    0.6589670017    3.6959079097   35.7233991761
   473      1    1.9435000012    1.4706221836   35.7244981961
   474      1    0.6597670068    8.1464793620   35.7210991652
   475      1    1.9441999928    5.9212007573   35.7221981852
   476      1    0.6607589957   12.5971006641   35.7187991543
   477      1    1.9451000114   10.3718006952   35.7198981743
   478      1    1.9461900093   14.8223009332   35.7175981634
   479      1    0.6633680062   21.4982008401   35.7140971615
   480      1    0.6650140143   25.9487010782   35.7117971506