
2560 atoms
1 atom types
   0.0000000000    2.5697195300 xlo xhi
   0.0000000000  712.1415671254 ylo yhi
   0.0000000000   56.6505147649 zlo zhi
   0.0000000000   -0.0000000257   -0.0000000257 xy xz yz

Atoms # atomic

     1      1    1.9272900071    7.4131587069    0.3332001997
     2      1    0.6424310130    0.7385762619    0.3361698197
     3      1    1.9272900071    2.9634418245    0.3351897658
     4      1    0.6424319895    5.1883002657    0.3342000813
     5      1    1.9273000033   20.7621028329    0.3269397513
     6      1    0.6424349961   18.5373013631    0.3280302737
     7      1    0.6424380027   31.8860033610    0.3211002162
     8      1    1.9273000033   34.1107977094    0.3198301117
     9      1    0.6424380027   36.3354994795    0.3185197853
    10      1    0.6424370005   27.4365001211    0.3235197597
    11      1    0.6424359983   22.9868971814    0.3258299677
    12      1    1.9273000033   25.2116986512    0.3246901594
    13      1    1.9273000033   29.6612018911    0.3223300989
    14      1    1.9273000033   38.5602012495    0.3171800006
    15      1    1.9272900071   11.8627972537    0.3311698452
    16      1    0.6424329917    9.6380029053    0.3321901210
    17      1    1.9272900071   16.3124998932    0.3290902048
    18      1    0.6424339939   14.0876984234    0.3301399389
    19      1    0.6424390039   39.3029008103    2.3958001219
    20      1    1.9273000024   37.0780993405    2.3971597342
    21      1    0.6424380017   34.8532978706    2.3984700606
    22      1    1.9273000024   32.6285035222    2.3997497957
    23      1    0.6424369995   30.4037020523    2.4009898755
    24      1    0.6424359973   25.9540991126    2.4033697636
    25      1    0.6424349952   21.5045032943    2.4056301192
    26      1    1.9272900062   19.2797018245    2.4067200751
    27      1    0.6424339930   17.0549003546    2.4077902033
    28      1    1.9272900062   14.8299991849    2.4088399373
    29      1    0.6424329908   12.6051977151    2.4098800408
    30      1    1.9272900062   10.3802965454    2.4108997501
    31      1    0.6424329908    8.1554879541    2.4119001982
    32      1    1.9272900062    5.9306295129    2.4129000797
    33      1    0.6424320143    3.7057710718    2.4138897642
    34      1    1.9272900062    1.4809126306    2.4148698181
    35      1    1.9273000024   28.1789005825    2.4021897334
    36      1    1.9273000024   23.7292976428    2.4045101385
    37      1    0.6424310111    2.2232276349    4.5051202901
    38      1    1.9272900052    4.4481003190    4.5041300391
    39      1    0.6424380008   37.8206992015    4.4872997376
    40      1    1.9273000014   35.5958977316    4.4886298917
    41      1    1.9272900052   13.3474984766    4.5001101185
    42      1    1.9272900052   17.7972011161    4.4980100840
    43      1    0.6424339920   15.5723996463    4.4990700151
    44      1    0.6424369986   28.9214007437    4.4923801558
    45      1    1.9273000014   26.6965992738    4.4935601860
    46      1    0.6424320133    6.6729587601    4.5031397881
    47      1    0.6424359964   24.4717978039    4.4947198221
    48      1    1.9272900052    8.8978172013    4.5021399065
    49      1    1.9272900052   22.2468966343    4.4958398027
    50      1    0.6424329898   11.1226970068    4.5011298278
    51      1    0.6424369986   33.3711033832    4.4899198239
    52      1    0.6424349942   20.0221022858    4.4969399557
    53      1    1.9273000014   31.1462022135    4.4911701008
    54      1    1.9272999967   28.1844980095   14.9653098349
    55      1    1.9272900043   11.8650974681    6.6013400267
    56      1    0.6424369976   31.8888020745    6.5913100531
    57      1    1.9273000005   34.1137032442    6.5900501457
    58      1    0.6424379998   36.3384975926    6.5887500163
    59      1    1.9272900043   20.7645027472    6.5971297605
    60      1    0.6424349932   22.9893967954    6.5960199769
    61      1    1.9273000005   25.2141982653    6.5948897991
    62      1    0.6424359954   27.4390994350    6.5937301631
    63      1    1.9273000005   29.6640006047    6.5925399358
    64      1    0.6424339911   18.5397012773    6.5982100858
    65      1    1.9273000005   38.5633987623    6.5874102317
    66      1    0.6424330146   14.0898989380    6.6003197510
    67      1    1.9272900043   16.3148001076    6.5992700169
    68      1    0.6424310102    0.7406984410    6.6063099764
    69      1    1.9272900043    2.9655711250    6.6053401196
    70      1    1.9272900043    7.4153093716    6.6033601841
    71      1    0.6424320124    9.6401820556    6.6023597360
    72      1    0.6424320124    5.1904366876    6.6043498686
    73      1    0.6424379989   39.3060983231    8.6888100914
    74      1    1.9272999995   37.0811971534    8.6902099256
    75      1    0.6424369967   34.8563031052    8.6915100549
    76      1    1.9272999995   32.6314019355    8.6928101843
    77      1    0.6424359945   30.4065007658    8.6940100422
    78      1    0.6424359945   25.9567981263    8.6964097580
    79      1    1.9272900033   23.7318969566    8.6975099110
    80      1    0.6424349923   21.5070029084    8.6986100640
    81      1    1.9272900033   19.2821017387    8.6997102170
    82      1    0.6424339901   17.0572005690    8.7008098034
    83      1    1.9272900033   14.8322993993    8.7019099564
    84      1    0.6424330136   12.6073982297    8.7029098380
    85      1    1.9272900033   10.3825967598    8.7039102861
    86      1    0.6424320114    8.1576813473    8.7049101677
    87      1    1.9272900033    5.9328015419    8.7059100493
    88      1    0.6424310092    3.7079217364    8.7069099309
    89      1    1.9272999995   28.1815995962    8.6952099001
    90      1    1.9272900033    1.4830419310    8.7079098125
    91      1    0.6424330127   15.5746998607   10.8020102534
    92      1    1.9272900024   13.3497986910   10.8031098399
    93      1    0.6424379979   37.8240035355   10.7903102226
    94      1    0.6424320105   11.1248975213   10.8041102880
    95      1    1.9272900024    8.9000533230   10.8051101695
    96      1    1.9272999986   35.5990026660   10.7916097854
    97      1    1.9272999986   26.6992982875   10.7965100549
    98      1    0.6424349913   24.4743971178   10.7977099128
    99      1    0.6424359935   28.9241994572   10.7954099019
   100      1    1.9272900024   22.2495030695   10.7988100658
   101      1    1.9272999986   31.1492003266   10.7941097726
   102      1    0.6424340148   20.0246018999   10.7999102188
   103      1    0.6424369957   33.3741014963   10.7929099147
   104      1    1.9272900024   17.7997007302   10.8010098053
   105      1    0.6424310083    6.6751592747   10.8061100511
   106      1    0.6424300061    2.2253925425   10.8081098143
   107      1    1.9272900024    4.4502723479   10.8071099327
   108      1    0.6424359926   31.8918001877   12.8843098256
   109      1    1.9272999976   34.1168010571   12.8830102627
   110      1    1.9272999976   29.6667993182   12.8855102500
   111      1    0.6424350161   27.4418981485   12.8867101079
   112      1    0.6424369948   36.3418019266   12.8817101334
   113      1    1.9272999976   38.5667030963   12.8804100041
   114      1    0.6424320095    9.6424324201   12.8953102225
   115      1    1.9272900014    7.4175170076   12.8963101041
   116      1    0.6424330117   14.0922988522   12.8933098928
   117      1    1.9272900014   11.8672979827   12.8943097744
   118      1    0.6424300051    0.7428419842   12.8993097489
   119      1    0.6424310073    5.1926229593   12.8973099857
   120      1    1.9272900014    2.9677289111   12.8983098673
   121      1    0.6424340139   18.5421011916   12.8912098583
   122      1    0.6424340139   22.9920032307   12.8890101188
   123      1    1.9272900014   20.7670023612   12.8901102718
   124      1    1.9272900014   25.2168972790   12.8879099658
   125      1    1.9272900014   16.3172000219   12.8923100112
   126      1    0.6424340130   21.5095025224   14.9687099988
   127      1    0.6424300042    3.7100795225   14.9770098657
   128      1    1.9272900005   23.7345033919   14.9676098458
   129      1    1.9272900005    1.4851925957   14.9780097473
   130      1    0.6424350152   25.9594971400   14.9665102593
   131      1    0.6424330108   17.0596004832   14.9709103048
   132      1    0.6424369938   39.3096020568   14.9589100263
   133      1    1.9272900005   10.3847972744   14.9740102210
   134      1    1.9272999967   32.6344997485   14.9628098477
   135      1    1.9272999967   37.0845014875   14.9602101556
   136      1    0.6424320086   12.6096984441   14.9730097729
   137      1    1.9272900005   14.8346993136   14.9720098913
   138      1    0.6424369938   34.8595006180   14.9616099898
   139      1    1.9272900005   19.2846013527   14.9698101518
   140      1    0.6424359916   30.4094988790   14.9641099770
   141      1    1.9272900005    5.9349878136   14.9760099842
   142      1    0.6424310064    8.1599032261   14.9750101026
   143      1    1.9272900024    0.0005056156   10.8091102624
   144      1    1.9273000033   60.8069981860    0.3006601440
   145      1    0.6424439901   76.3787996354    0.2844297715
   146      1    0.6424410092   58.5823035374    0.3026202518
   147      1    0.6424410092   54.1330993969    0.3062900722
   148      1    1.9273000033   56.3577014672    0.3044897188
   149      1    1.9273000033   78.6033020058    0.2816901526
   150      1    0.6424430136   67.4806975754    0.2942897936
   151      1    1.9273000033   69.7052996456    0.2919897827
   152      1    0.6424430136   71.9298020160    0.2895798698
   153      1    1.9273000033   74.1542972650    0.2870600549
   154      1    0.6424420114   63.0316002562    0.2986297896
   155      1    1.9273000033   65.2561026266    0.2965099273
   156      1    0.6424400071   45.2343991380    0.3128502018
   157      1    1.9273000033   47.4591009081    0.3113002437
   158      1    0.6424400071   49.6837029783    0.3096902361
   159      1    1.9273000033   51.9083976269    0.3080298095
   160      1    0.6424390049   40.7850027194    0.3157801664
   161      1    1.9273000033   43.0096973680    0.3143401103
   162      1    0.6424410083   57.1007001274    2.3829897410
   163      1    1.9273000024   54.8759983574    2.3848099220
   164      1    0.6424400061   52.6512965874    2.3865598564
   165      1    1.9273000024   50.4266019388    2.3882497413
   166      1    0.6424400061   48.2019001687    2.3898699460
   167      1    1.9273000024   45.9770986989    2.3914301012
   168      1    0.6424390039   43.7523969288    2.3929398374
   169      1    1.9273000024   41.5276025804    2.3943900905
   170      1    1.9273000024   59.3254018975    2.3810902492
   171      1    0.6424420105   61.5500965461    2.3791199443
   172      1    1.9273000024   63.7747983161    2.3770601316
   173      1    0.6424420105   65.9994003864    2.3749198751
   174      1    1.9273000024   77.1225033159    2.3626997926
   175      1    0.6424439892   74.8979012456    2.3653601008
   176      1    1.9273000024   72.6732991754    2.3678997433
   177      1    0.6424430127   70.4486971052    2.3703402475
   178      1    1.9273000024   68.2241021564    2.3726799138
   179      1    1.9273000014   53.3943023691    4.4765899578
   180      1    0.6424390030   42.2703021412    4.4845102663
   181      1    1.9273000014   40.0455006713    4.4859299282
   182      1    0.6424430117   73.4170028559    4.4576998437
   183      1    0.6424410074   55.6189970177    4.4748201957
   184      1    0.6424420095   64.5181031973    4.4669701339
   185      1    1.9273000014   71.1923010858    4.4601698061
   186      1    1.9273000014   48.9446994294    4.4799402693
   187      1    1.9273000014   66.7427978459    4.4647998527
   188      1    0.6424400052   51.1695008992    4.4783002369
   189      1    0.6424430117   68.9674996160    4.4625298666
   190      1    0.6424390030   46.7198979595    4.4815202521
   191      1    1.9273000014   44.4951036111    4.4830401854
   192      1    1.9273000014   75.6416975045    4.4551199792
   193      1    1.9273000014   57.8437984875    4.4729801870
   194      1    0.6424410074   60.0685999574    4.4710597346
   195      1    0.6424440139   77.8663992745    4.4524200157
   196      1    1.9273000014   62.2933017274    4.4690599714
   197      1    1.9273000005   65.2615006569    6.5668302327
   198      1    1.9273000005   60.8117980173    6.5709702523
   199      1    0.6424420086   63.0366991870    6.5689500949
   200      1    0.6424440130   76.3856005845    6.5548197570
   201      1    1.9273000005   78.6104020544    6.5520801381
   202      1    1.9273000005   74.1607991147    6.5574302127
   203      1    0.6424420086   67.4863021267    6.5646299267
   204      1    1.9273000005   69.7112032964    6.5623299158
   205      1    0.6424430108   71.9359976448    6.5599398306
   206      1    0.6424400042   49.6875983898    6.5799601225
   207      1    1.9273000005   51.9124995595    6.5783002624
   208      1    0.6424400042   54.1373010293    6.5765797863
   209      1    1.9273000005   56.3622021990    6.5747799994
   210      1    0.6424410064   58.5869965475    6.5729201630
   211      1    0.6424379998   40.7882002322    6.5860200280
   212      1    1.9273000005   43.0131014018    6.5845901690
   213      1    0.6424390020   45.2379028717    6.5831002605
   214      1    1.9273000005   47.4627969200    6.5815599330
   215      1    0.6424410055   57.1054002589    8.6760099076
   216      1    1.9272999995   54.8804990893    8.6779099659
   217      1    0.6424400033   52.6554982198    8.6796100478
   218      1    1.9272999995   50.4305970501    8.6813101298
   219      1    0.6424390011   48.2057030018    8.6829099403
   220      1    1.9272999995   45.9808018322    8.6845097508
   221      1    0.6424390011   43.7559006625    8.6860098565
   222      1    1.9272999995   41.5309994928    8.6874102572
   223      1    1.9272999995   59.3303014286    8.6742101207
   224      1    0.6424410055   61.5552025983    8.6722097911
   225      1    1.9272999995   63.7800966466    8.6701097565
   226      1    0.6424420076   66.0049978162    8.6680102884
   227      1    1.9272999995   77.1297030643    8.6558100335
   228      1    0.6424430098   74.9048018946    8.6585099971
   229      1    1.9272999995   72.6798010251    8.6610099843
   230      1    0.6424430098   70.4548998554    8.6634102666
   231      1    1.9272999995   68.2299986857    8.6658099824
   232      1    1.9272999986   53.3987034011   10.7796100733
   233      1    1.9272999986   40.0488975838   10.7889098218
   234      1    0.6424379979   42.2738984533   10.7875099876
   235      1    0.6424440111   77.8738981224   10.7554101064
   236      1    1.9272999986   75.6487975530   10.7581100700
   237      1    1.9272999986   44.4987996229   10.7860098820
   238      1    0.6424430089   73.4237966835   10.7607097621
   239      1    1.9272999986   71.1988029355   10.7631100444
   240      1    0.6424390001   46.7238004924   10.7845097764
   241      1    1.9272999986   48.9487016621   10.7829099658
   242      1    0.6424420067   64.5237006272   10.7699098057
   243      1    1.9272999986   62.2986997577   10.7720098403
   244      1    0.6424400023   51.1737025316   10.7813101553
   245      1    1.9272999986   66.7487014967   10.7678097711
   246      1    0.6424410045   60.0736988882   10.7740101699
   247      1    1.9272999986   57.8486980187   10.7759102282
   248      1    0.6424400023   55.6236971492   10.7778102865
   249      1    0.6424420067   68.9737023662   10.7655097602
   250      1    1.9272999976   51.9168008917   12.8712099605
   251      1    0.6424410035   58.5920028998   12.8658100335
   252      1    0.6424420057   67.4923980557   12.8575101665
   253      1    0.6424400014   54.1419014610   12.8695098786
   254      1    1.9272999976   69.7174986250   12.8552101556
   255      1    0.6424389992   45.2417982832   12.8760099586
   256      1    1.9272999976   56.3670020303   12.8677100917
   257      1    1.9272999976   74.1677994634   12.8503098861
   258      1    1.9272999976   65.2672974864   12.8597099060
   259      1    0.6424379970   40.7916968444   12.8790101699
   260      1    1.9272999976   47.4667991527   12.8745098530
   261      1    0.6424430079   71.9426988941   12.8528098733
   262      1    0.6424430079   76.3929997326   12.8477101940
   263      1    1.9272999976   43.0166977139   12.8775100643
   264      1    1.9272999976   78.6182000017   12.8450102305
   265      1    0.6424389992   49.6918000222   12.8729100425
   266      1    1.9272999976   60.8171034691   12.8639099752
   267      1    0.6424410036   63.0421969170   12.8619102120
   268      1    0.6424400004   52.6599989516   14.9496102778
   269      1    1.9272999967   45.9846972437   14.9545099808
   270      1    0.6424389982   48.2097978130   14.9529101703
   271      1    1.9272999967   50.4348983823   14.9513097932
   272      1    0.6424379960   43.7597034956   14.9560100864
   273      1    1.9272999967   41.5346029263   14.9575101921
   274      1    0.6424420048   70.4614017051   14.9333102252
   275      1    1.9272999967   72.6867016740   14.9309099428
   276      1    0.6424430070   74.9120016430   14.9283102507
   277      1    1.9272999967   77.1373016119   14.9257099921
   278      1    1.9272999967   68.2362014359   14.9357099410
   279      1    1.9272999967   54.8851992208   14.9478099244
   280      1    0.6424400004   57.1102997901   14.9460101376
   281      1    1.9272999967   59.3354003594   14.9441100793
   282      1    0.6424410026   61.5606006285   14.9421097496
   283      1    1.9272999967   63.7858008977   14.9401099864
   284      1    0.6424420048   66.0110011668   14.9379102470
   285      1    0.6424829985  111.9669991188    0.2214899166
   286      1    1.9273600063  114.1910029901    0.2158101360
   287      1    0.6425230090  116.4149997400    0.2098601324
   288      1    0.6424479989   94.1739996358    0.2586299941
   289      1    1.9273099996   96.3983026066    0.2547001479
   290      1    1.9273099996   91.9496966651    0.2623898888
   291      1    1.9273099996   87.5009981451    0.2694100205
   292      1    0.6424459945   85.2766025960    0.2726900853
   293      1    0.6424469967   89.7254008157    0.2659798319
   294      1    0.6424640083  107.5189984976    0.2320999915
   295      1    1.9273299920  109.7430023689    0.2269198684
   296      1    0.6424449923   80.8276975550    0.2788202375
   297      1    1.9273199958  105.2950017477    0.2370399164
   298      1    0.6424510055   98.6225984559    0.2505799559
   299      1    1.9273099996  100.8470011265    0.2462801819
   300      1    1.9273099996   83.0521999254    0.2758200263
   301      1    0.6424549886  103.0709978764    0.2417702344
   302      1    1.9273700016  117.1620006359    2.2871801244
   303      1    0.6424909894  114.9379967646    2.2932100052
   304      1    1.9273400130  112.7140000147    2.2989600324
   305      1    0.6424679904  110.4889991452    2.3044602309
   306      1    1.9273199948  108.2650023953    2.3096998370
   307      1    0.6424569920  106.0409985240    2.3147100085
   308      1    1.9273099986  103.8159976545    2.3194901790
   309      1    0.6424520067  101.5920009046    2.3240601760
   310      1    1.9273099986   99.3675982340    2.3284301967
   311      1    0.6424490002   97.1432026849    2.3325900440
   312      1    1.9273099986   94.9187003145    2.3365697427
   313      1    0.6424469958   92.6942976439    2.3403800563
   314      1    1.9273099986   90.4698023949    2.3440102213
   315      1    0.6424459936   88.2453000245    2.3474902624
   316      1    1.9273099986   86.0207976541    2.3508099825
   317      1    0.6424449914   83.7962027053    2.3539801454
   318      1    1.9273000024   81.5717003349    2.3570200120
   319      1    0.6424439892   79.3470982647    2.3599199518
   320      1    0.6424489992  100.1129968114    4.4176700234
   321      1    1.9273099977   97.8883021628    4.4219001174
   322      1    0.6424569910  109.0109991716    4.3986802044
   323      1    0.6424479970   95.6637000925    4.4259398656
   324      1    0.6424520058  104.5620015522    4.4086099066
   325      1    1.9273099977  106.7870024217    4.4037600560
   326      1    1.9273099977  102.3370006827    4.4132501503
   327      1    1.9273099977   93.4390980223    4.4297898346
   328      1    1.9273000015   80.0911010446    4.4496101502
   329      1    0.6424449904   82.3158028146    4.4466597914
   330      1    1.9273199939  111.2360000411    4.3933601545
   331      1    1.9273000015   84.5404974632    4.4435899000
   332      1    0.6424670130  113.4599967909    4.3877800788
   333      1    0.6424459926   86.7650995334    4.4403698847
   334      1    1.9273099977   88.9898013035    4.4369997456
   335      1    0.6424469948   91.2144033737    4.4334800491
   336      1    1.9273400120  115.6849976604    4.3819501744
   337      1    0.6424890098  117.9090015318    4.3758302193
   338      1    0.6424440130   80.8353032241    6.5492300507
   339      1    1.9273000005   83.0600975725    6.5462400366
   340      1    1.9273099967   96.4088992703    6.5252102325
   341      1    0.6424469939   98.6337007401    6.5211098682
   342      1    1.9273099967  100.8580037109    6.5168197247
   343      1    0.6424469939   94.1840978004    6.5291202510
   344      1    0.6424450152   85.2848990424    6.5431202927
   345      1    1.9273099967   87.5097005122    6.5398498585
   346      1    0.6424459917   89.7345019821    6.5364400640
   347      1    1.9273099967   91.9593034520    6.5328597515
   348      1    1.9273099967  105.3079983285    6.5076298782
   349      1    0.6424479961  103.0829974590    6.5123301714
   350      1    1.9273099967  114.2069976868    6.4864901721
   351      1    0.6424579923  116.4319985563    6.4805701933
   352      1    0.6424530070  111.9819968173    6.4921501251
   353      1    1.9273099967  109.7580000674    6.4975500521
   354      1    0.6424500005  107.5329991980    6.5027097810
   355      1    1.9272999996  117.1789994522    8.5804098979
   356      1    0.6424430099  114.9539985827    8.5864097539
   357      1    1.9272999996  112.7289977132    8.5922102001
   358      1    0.6424459907  110.5039968437    8.5976101272
   359      1    1.9273099958  108.2790030956    8.6029097829
   360      1    0.6424469929  106.0540022261    8.6079097573
   361      1    1.9273099958  103.8290013566    8.6127097554
   362      1    0.6424469929  101.6040004871    8.6172100723
   363      1    1.9273099958   99.3792987171    8.6216101178
   364      1    0.6424459907   97.1542978476    8.6257099155
   365      1    1.9273099958   94.9292969781    8.6297100084
   366      1    0.6424459907   92.7044029299    8.6335101249
   367      1    1.9273099958   90.4794020604    8.6371102651
   368      1    0.6424450142   88.2544011909    8.6406101339
   369      1    1.9272999995   86.0295000212    8.6439100264
   370      1    0.6424450142   83.8044991517    8.6471102140
   371      1    1.9272999995   81.5795979820    8.6501098587
   372      1    0.6424440120   79.3545971125    8.6530097986
   373      1    0.6424460155   91.2245015383   10.7364100903
   374      1    1.9273099948   88.9993012691   10.7400102305
   375      1    0.6424450133   86.7742006998   10.7433101230
   376      1    1.9272999986   84.5491001305   10.7465097441
   377      1    0.6424440111   82.3239995612   10.7496102267
   378      1    1.9272999986   80.0989986917   10.7526098715
   379      1    1.9273099948   93.4496021076   10.7327102452
   380      1    1.9272900024  115.7020035982   10.6849102403
   381      1    0.6424379980  113.4759986091   10.6907101200
   382      1    1.9272999986  111.2509977396   10.6963100234
   383      1    0.6424430089  109.0259968701   10.7016102456
   384      1    1.9272999986  106.8010031220   10.7067099249
   385      1    0.6424450133  104.5749981329   10.7116101944
   386      1    1.9273099948  102.3499972634   10.7162102162
   387      1    0.6424460155  100.1250035153   10.7206102617
   388      1    1.9273099948   97.8999029460   10.7249100358
   389      1    0.6424460155   95.6748023767   10.7289101286
   390      1    0.6424259974  117.9269973463   10.6788101129
   391      1    0.6424450123  103.0960011611   12.8051101399
   392      1    1.9273099939  100.8710002916   12.8096098903
   393      1    1.9273099939   96.4203006539   12.8180100286
   394      1    1.9272999977  105.3219990288   12.8004098467
   395      1    0.6424460145   98.6457003227   12.8139102309
   396      1    0.6424389992  111.9979986355   12.7849102658
   397      1    1.9272900015  114.2240036246   12.7792100910
   398      1    0.6424430080  107.5469998983   12.7955101437
   399      1    1.9272999977  109.7729977660   12.7903101929
   400      1    0.6424460145   94.1950006849   12.8219098500
   401      1    1.9272999976   83.0686005400   12.8391100793
   402      1    0.6424440101   80.8434002708   12.8421102906
   403      1    0.6424450123   89.7444007470   12.8293101068
   404      1    1.9273099939   91.9697007160   12.8257099666
   405      1    0.6424450123   85.2939005089   12.8360101632
   406      1    1.9272999976   87.5191007781   12.8327102707
   407      1    0.6424269986  116.4500014923   12.7733099399
   408      1    1.9272800043  117.1970023882   14.8499099038
   409      1    0.6424320086  114.9720015187   14.8559097598
   410      1    0.6424440092   79.3626015809   14.9229097572
   411      1    1.9272999967   81.5879015498   14.9200098173
   412      1    0.6424440092   83.8133012186   14.9169099011
   413      1    0.6424450114  101.6169970679   14.8869100545
   414      1    1.9272999967  103.8430020570   14.8823100327
   415      1    0.6424440092  106.0680029265   14.8775100346
   416      1    1.9273100186   99.3915973991   14.8913101000
   417      1    1.9272999967  108.2940007942   14.8725100602
   418      1    0.6424410026  110.5199986619   14.8672098380
   419      1    1.9272999967  112.7460036510   14.8617102061
   420      1    1.9272999967   86.0387008874   14.9137102801
   421      1    0.6424450114   88.2641005562   14.9104098211
   422      1    1.9272999967   90.4895002249   14.9069099523
   423      1    0.6424450114   92.7149995935   14.9033098121
   424      1    1.9273100186   94.9404989621   14.8994099906
   425      1    0.6424460136   97.1659983307   14.8954098978
   426      1    1.9274200093  118.6390036113    0.2036302753
   427      1    1.9273199930  118.6560024276    6.4743601639
   428      1    1.9272800053  118.6750023618   12.7670098362
   429      1    0.6426109962  120.8630003612    0.1971001705
   430      1    1.9275500114  123.0869971111    0.1902499902
   431      1    1.9520800144  149.7680004866    0.0776899494
   432      1    0.6427989969  125.3110009824    0.1830797346
   433      1    1.9149400056  152.8190001104   14.7026100679
   434      1    0.6460320125  138.6519976085    0.1322602573
   435      1    0.6502249982  143.0990012315    0.1118898652
   436      1    1.9325900023  140.8760014798    0.1223101609
   437      1    1.9387600017  145.3220009832    0.1009897397
   438      1    1.9297400035  136.4289978568    0.1417497850
   439      1    0.6440989924  134.2050011069    0.1508099019
   440      1    1.9278200118  127.5340007340    0.1755701423
   441      1    0.6593029950  147.5450007349    0.0895899566
   442      1    1.9284300119  131.9820013552    0.1594502384
   443      1    0.6432089957  129.7579974839    0.1677002528
   444      1    0.6788030033  151.9919972365    0.0653101125
   445      1    0.7198650142  156.4390008595    0.0394202607
   446      1    1.9804900113  154.2149969882    0.0525099286
   447      1    1.9929600112  157.1910009892    2.1142997485
   448      1    0.6870500032  154.9669971179    2.1276602059
   449      1    1.9575800099  152.7439973662    2.1406699966
   450      1    0.6629889997  150.5200006163    2.1532401793
   451      1    1.9412400114  148.2970008646    2.1652999409
   452      1    0.6519029984  146.0729969933    2.1768600449
   453      1    1.9337200099  143.8490002434    2.1879097278
   454      1    0.6468010001  141.6260004917    2.1984699503
   455      1    1.9302600110  139.4020037418    2.2085401458
   456      1    0.6444529960  137.1779998705    2.2181599697
   457      1    1.9286699970  134.9540031206    2.2273401856
   458      1    0.6433719921  132.7299992493    2.2361000547
   459      1    1.9279400168  130.5060024994    2.2444599712
   460      1    0.6428750083  128.2830027477    2.2524301321
   461      1    1.9275999915  126.0580018782    2.2600501928
   462      1    0.6426449927  123.8339980069    2.2673099563
   463      1    1.9274400008  121.6100012571    2.2742400138
   464      1    0.6425399939  119.3859973858    2.2808601929
   465      1    0.6425350077  122.3579991511    4.3627099600
   466      1    1.9285900007  137.9279988824    4.3058101830
   467      1    1.9273700006  120.1329982816    4.3694202135
   468      1    1.9300999936  142.3759995036    4.2858301130
   469      1    0.6465639939  144.6010003731    4.2751299637
   470      1    0.6443420089  140.1520027537    4.2960498658
   471      1    0.6433210079  135.7040021325    4.3151201286
   472      1    1.9275799981  129.0310006418    4.3405800029
   473      1    0.6428510062  131.2549973917    4.3324897429
   474      1    1.9274399998  124.5820030224    4.3556700006
   475      1    1.9279000053  133.4799982612    4.3240097274
   476      1    1.9567900001  155.7189972476    4.2145699969
   477      1    0.6868449900  157.9410000011    4.2015602062
   478      1    0.6621840084  153.4959974959    4.2274800827
   479      1    1.9333800093  146.8249971230    4.2639397875
   480      1    0.6514229995  149.0490009943    4.2522499538