
3840 atoms
1 atom types
   0.0000000000    2.5697195300 xlo xhi
   0.0000000000  712.1415671254 ylo yhi
   0.0000000000   75.5340196865 zlo zhi
   0.0000000000   -0.0000000257   -0.0000000257 xy xz yz

Atoms # atomic

     1      1    1.9272900029    0.0008118370   12.8549195385
     2      1    1.9272900007    0.0074418729   19.1556192489
     3      1    1.9272900065   29.6559035572    2.3305296648
     4      1    1.9272900072   13.3375000110    0.2703015108
     5      1    0.6424300109   11.1125988413    0.2728047082
     6      1    0.6424300109    6.6626398308    0.2777861768
     7      1    1.9272900043   29.6628967853    8.6223193822
     8      1    1.9272900072    4.4376532041    0.2802674694
     9      1    1.9272900022   29.6699968346   14.9209192469
    10      1    0.6424300109    2.2126594560    0.2827449852
    11      1    0.6424310131   15.5625008805    0.2677877386
    12      1    0.6424310053   25.9708985253   23.2958193942
    13      1    1.9272900072    8.8876193360    0.2752988416
    14      1    0.6424300102    9.6314369594    2.3534497077
    15      1    1.9272900065    7.4064574541    2.3559393090
    16      1    0.6424300102    0.7314762099    2.3633597711
    17      1    1.9272900065    2.9564770794    2.3608898086
    18      1    0.6424300102    5.1814708274    2.3584198462
    19      1    0.6424310124   18.5312980090    2.3434097258
    20      1    1.9272900065   25.2061012179    2.3357392461
    21      1    1.9272900065   20.7561991787    2.3408695167
    22      1    0.6424310124   22.9812000482    2.3383096688
    23      1    0.6424310124   27.4310023876    2.3331491846
    24      1    1.9272900065   16.3062971395    2.3459393601
    25      1    1.9272900065   11.8564022218    2.3509593511
    26      1    0.6424310124   14.0814030913    2.3484493556
    27      1    1.9272900058   28.1748983464    4.4228492023
    28      1    0.6424300095    3.7003089455    4.4506192847
    29      1    1.9272900057    1.4753080760    4.4530892471
    30      1    0.6424300095    8.1502893203    4.4456597209
    31      1    1.9272900057    5.9253026936    4.4481395028
    32      1    0.6424300095   12.6001984808    4.4406797630
    33      1    1.9272900057   10.3752973112    4.4431791837
    34      1    0.6424310117   17.0502002198    4.4356597721
    35      1    1.9272900058   14.8251993503    4.4381795870
    36      1    0.6424310117   21.5001022590    4.4305899287
    37      1    1.9272900058   19.2751013895    4.4331293824
    38      1    0.6424310117   25.9499971768    4.4254498386
    39      1    1.9272900058   23.7250034287    4.4280293254
    40      1    0.6424310110   28.9189011266    6.5224894971
    41      1    1.9272900050   22.2439982179    6.5302392875
    42      1    0.6424310110   24.4689990874    6.5276696202
    43      1    1.9272900050   26.6939002571    6.5250893780
    44      1    1.9272900050    8.8941567935    6.5453294740
    45      1    0.6424310110   15.5691024307    6.5378395206
    46      1    0.6424310110   20.0189973484    6.5327893160
    47      1    1.9272900050    4.4441692973    6.5502792183
    48      1    1.9272899993   23.7457979560   23.2984192752
    49      1    0.6424300088   11.1191006917    6.5428398727
    50      1    0.6424300088    2.2191826707    6.5527597555
    51      1    1.9272900050   13.3441015612    6.5403396966
    52      1    1.9272900050   17.7941033001    6.5353197057
    53      1    0.6424300088    6.6691701668    6.5478092558
    54      1    1.9272900043    7.4130518829    8.6476693546
    55      1    0.6424300080    5.1880510134    8.6501498918
    56      1    0.6424300080    0.7380563958    8.6550898167
    57      1    1.9272900043    2.9630501439    8.6526198542
    58      1    0.6424300080    9.6380385095    8.6451895727
    59      1    1.9272900043   16.3129983895    8.6376897999
    60      1    1.9272900043   20.7630001285    8.6326297759
    61      1    0.6424310102   22.9879012982    8.6300797474
    62      1    0.6424310102   18.5379992590    8.6351692297
    63      1    0.6424310102   27.4379030372    8.6249192632
    64      1    1.9272900043   25.2129021677    8.6275093247
    65      1    1.9272900043   11.8629966505    8.6426992161
    66      1    0.6424300080   14.0879975200    8.6401997954
    67      1    1.9272900036   28.1818986959   10.7236199147
    68      1    0.6424300073    3.7069318599   10.7513197504
    69      1    1.9272900036    1.4819309905   10.7538199265
    70      1    0.6424300073    8.1569335989   10.7464198586
    71      1    1.9272900036    5.9319327294   10.7488195744
    72      1    0.6424300073   12.6068997309   10.7414195065
    73      1    1.9272900036   10.3818988614   10.7439196825
    74      1    0.6424310095   17.0569014698   10.7364199097
    75      1    1.9272900036   14.8319006003   10.7389193304
    76      1    0.6424310095   21.5069032088   10.7313198527
    77      1    0.6424310095   25.9568978264   10.7262197957
    78      1    1.9272900036   23.7318969569   10.7288196766
    79      1    1.9272900036   19.2819023393   10.7339197337
    80      1    0.6424310088   28.9259014760   12.8222193507
    81      1    0.6424310088   24.4758997370   12.8274198679
    82      1    1.9272900029   22.2508988675   12.8299192887
    83      1    1.9272900029   26.7009006065   12.8248192316
    84      1    0.6424300066   15.5759033805   12.8375195217
    85      1    0.6424310088   20.0258979980   12.8325199250
    86      1    1.9272900029    4.4508206974   12.8500196466
    87      1    0.6424300066    6.6758286883   12.8475194706
    88      1    0.6424300066    2.2258198279   12.8525198227
    89      1    1.9272900029   13.3508028112   12.8400196978
    90      1    1.9272900029    8.9008295578   12.8450192945
    91      1    0.6424300066   11.1258019417   12.8425198738
    92      1    1.9272900029   17.8008971286   12.8350193457
    93      1    1.9272900022    7.4197175258   14.9462193668
    94      1    0.6424300059    0.7446935531   14.9536194347
    95      1    0.6424300059    9.6447397595   14.9437199461
    96      1    0.6424300059    5.1947095349   14.9487195428
    97      1    1.9272900022    2.9697015440   14.9512197189
    98      1    0.6424310081   18.5448002089   14.9337192419
    99      1    1.9272900022   16.3197993394   14.9362194179
   100      1    1.9272900022   20.7698010784   14.9312198212
   101      1    0.6424310081   22.9949016477   14.9286199402
   102      1    0.6424310081   27.4449033867   14.9235198832
   103      1    1.9272900022   25.2199025172   14.9261197642
   104      1    1.9272900022   11.8697976004   14.9413194749
   105      1    0.6424300059   14.0947984699   14.9388192989
   106      1    1.9272900015   28.1889987452   17.0233195547
   107      1    0.6424300052    3.7135903815   17.0510193904
   108      1    1.9272900015    1.4885823905   17.0535195665
   109      1    0.6424300052    8.1636206061   17.0461194986
   110      1    1.9272900015    5.9385983724   17.0486196746
   111      1    0.6424300052   12.6137006807   17.0411199018
   112      1    1.9272900015   10.3886001114   17.0436193225
   113      1    0.6424300052   17.0637024197   17.0361195497
   114      1    1.9272900015   14.8387015502   17.0386197258
   115      1    0.6424310074   21.5137967371   17.0310194927
   116      1    1.9272900015   19.2888029890   17.0336193737
   117      1    0.6424310074   25.9638981759   17.0259194357
   118      1    1.9272900015   23.7388973064   17.0285193166
   119      1    1.9272900008   22.2577995172   19.1306197544
   120      1    0.6424310067   28.9330015253   19.1229198165
   121      1    1.9272900008   26.7080006558   19.1255196974
   122      1    0.6424300045   20.0326989479   19.1332196354
   123      1    1.9272900008   17.8076980784   19.1357198114
   124      1    0.6424310067   24.4829000865   19.1281195784
   125      1    1.9272900007    4.4574720975   19.1507193571
   126      1    0.6424300045   11.1326028915   19.1432195842
   127      1    1.9272900007    8.9075165650   19.1457197603
   128      1    0.6424300045    2.2324498638   19.1532195331
   129      1    0.6424300045    6.6824872098   19.1482199363
   130      1    0.6424300045   15.5825975091   19.1382192321
   131      1    1.9272900007   13.3575966396   19.1407194082
   132      1    0.6424300038   14.1014997199   21.2304194260
   133      1    1.9272900000   11.8764988504   21.2329196020
   134      1    0.6424300038   18.5516011587   21.2254198292
   135      1    1.9272900000   16.3266002892   21.2279192499
   136      1    0.6424300038    9.6513982811   21.2354197781
   137      1    1.9272900000    2.9763030942   21.2429195509
   138      1    0.6424300038    5.2013324493   21.2404193748
   139      1    0.6424300038    0.7512808604   21.2454197269
   140      1    1.9272900000    7.4263618045   21.2379199541
   141      1    1.9272900000   20.7767017280   21.2229196531
   142      1    1.9272900000   25.2269028666   21.2177198912
   143      1    0.6424310060   23.0018022973   21.2203197722
   144      1    0.6424310060   27.4520034359   21.2151192549
   145      1    0.6424300031    3.7201492032   23.3210198092
   146      1    1.9272899993    1.4951198480   23.3235192299
   147      1    0.6424300031    8.1702292777   23.3160194571
   148      1    1.9272899993    5.9451928011   23.3185196332
   149      1    0.6424300031   12.6203022309   23.3111195653
   150      1    1.9272899993   10.3953013614   23.3136197413
   151      1    1.9272899993   28.1959990947   23.2932195133
   152      1    0.6424300031   17.0705033695   23.3060195083
   153      1    1.9272899993   14.8454028002   23.3085196843
   154      1    0.6424300031   21.5206973867   23.3009194512
   155      1    1.9272899993   19.2955968174   23.3035193322
   156      1    1.9272900329   26.6870993072    0.2549998291
   157      1    0.6424310388   28.9120004769    0.2523999481
   158      1    1.9272900329   22.2372969679    0.2602003464
   159      1    1.9272900329   17.7874020501    0.2652996480
   160      1    0.6424310388   24.4621981376    0.2575997101
   161      1    0.6424310388   20.0124029196    0.2626997671
   162      1    1.9272900000   29.6770968838   21.2125193740
   163      1    1.9272900015   59.3402001946   16.9840199596
   164      1    0.6424310053   48.2225024174   23.2686195938
   165      1    1.9272899993   41.5469016100   23.2771194370
   166      1    0.6424310053   43.7721018791   23.2743193909
   167      1    1.9272899993   37.0966007716   23.2825193641
   168      1    0.6424310053   39.3218010407   23.2798197782
   169      1    1.9272899993   32.6462999331   23.2879192911
   170      1    0.6424310053   34.8714005024   23.2852197053
   171      1    0.6424310053   52.6729029557   23.2628193364
   172      1    1.9272899993   50.4477026866   23.2657198427
   173      1    0.6424310060   31.9021974532   21.2099194930
   174      1    1.9272900000   38.5775988609   21.2018192247
   175      1    1.9272900065   56.3543971296    2.2969593251
   176      1    0.6424329911   54.1295030814    2.2999497169
   177      1    0.6424339933   58.5791985995    2.2939296555
   178      1    0.6424310124   31.8807976055    2.3278995702
   179      1    1.9272900065   34.1056987752    2.3252392620
   180      1    0.6424310124   36.3305999448    2.3225593150
   181      1    0.6424310053   30.4210996640   23.2906196323
   182      1    1.9272900065   47.4549989720    2.3086897583
   183      1    1.9272900065   51.9047016115    2.3028993204
   184      1    0.6424319889   49.6799001417    2.3058194656
   185      1    0.6424319889   40.7804022842    2.3170997161
   186      1    1.9272900065   38.5555011145    2.3198393350
   187      1    0.6424319889   45.2300978023    2.3115298375
   188      1    1.9272900065   43.0053034539    2.3143298836
   189      1    1.9272900058   32.6248003856    4.4175897685
   190      1    0.6424310117   39.2994967732    4.4095098945
   191      1    1.9272900058   37.0746027250    4.4122298745
   192      1    0.6424320139   43.7492991126    4.4039792935
   193      1    1.9272900058   41.5243979429    4.4067597008
   194      1    0.6424320139   48.1991014519    4.3983195294
   195      1    0.6424310117   34.8497015553    4.4149196409
   196      1    1.9272900058   45.9742002823    4.4011694280
   197      1    0.6424329904   52.6488966699    4.3925192721
   198      1    1.9272900058   50.4240026216    4.3954394173
   199      1    0.6424329904   57.0985993094    4.3865498185
   200      1    1.9272900058   54.8736981397    4.3895598492
   201      1    1.9272900058   59.3234007793    4.3834997548
   202      1    0.6424310117   30.3998992159    4.4202296825
   203      1    1.9272900050   35.5936972140    6.5145395415
   204      1    0.6424320132   42.2685004229    6.5063592072
   205      1    1.9272900050   40.0435992532    6.5091192203
   206      1    0.6424320132   51.1681976800    6.4949996460
   207      1    1.9272900050   44.4934015925    6.5035697358
   208      1    0.6424320132   46.7184024620    6.5007492955
   209      1    0.6424310110   37.8186980835    6.5118392003
   210      1    1.9272900050   31.1438022962    6.5198594025
   211      1    0.6424310110   33.3688031657    6.5172194885
   212      1    1.9272900051   53.3930988496    6.4920598619
   213      1    1.9272900051   48.9433036317    6.4978895776
   214      1    0.6424329897   55.6180000193    6.4890898643
   215      1    1.9272900051   57.8429011890    6.4860692588
   216      1    0.6424320124   54.1374007292    8.5917892868
   217      1    1.9272900043   56.3623018989    8.5887996503
   218      1    0.6424330146   58.5873027684    8.5857692254
   219      1    0.6424310102   31.8877979550    8.6196794682
   220      1    1.9272899993   45.9973021483   23.2715193448
   221      1    0.6424310102   36.3377996939    8.6143497878
   222      1    1.9272900043   34.1127988245    8.6170297348
   223      1    1.9272900043   47.4625975204    8.6005096894
   224      1    0.6424320124   45.2375966509    8.6033391938
   225      1    0.6424320124   49.6874986901    8.5976393966
   226      1    1.9272900043   51.9124995595    8.5947298262
   227      1    1.9272900043   38.5627008636    8.6116396272
   228      1    0.6424310102   40.7877017331    8.6089098277
   229      1    1.9272900043   43.0127026026    8.6061392399
   230      1    1.9272900036   32.6319004349   10.7183196926
   231      1    0.6424310095   39.3068033436   10.7103198845
   232      1    1.9272900036   37.0819021739   10.7130194704
   233      1    0.6424310095   43.7567979611   10.7047197923
   234      1    1.9272900036   41.5317970917   10.7075198384
   235      1    0.6424320117   48.2067997001   10.6991197001
   236      1    0.6424310095   34.8569013044   10.7157198116
   237      1    1.9272900036   45.9817988306   10.7019197462
   238      1    0.6424320117   52.6568014391   10.6933194427
   239      1    1.9272900036   50.4318005696   10.6962191937
   240      1    0.6424320117   57.1067034783   10.6873197755
   241      1    1.9272900036   54.8817026088   10.6903192315
   242      1    1.9272900036   59.3316972264   10.6843195643
   243      1    0.6424310095   30.4068995654   10.7210192784
   244      1    1.9272900029   40.0509984019   12.8088196156
   245      1    0.6424310088   42.2759992714   12.8061192744
   246      1    1.9272900029   35.6009966629   12.8143192476
   247      1    0.6424320110   51.1761024492   12.7947196801
   248      1    1.9272900029   44.5010001409   12.8033192283
   249      1    0.6424310088   46.7261007102   12.8005199375
   250      1    0.6424310088   37.8259975324   12.8116196617
   251      1    1.9272900029   31.1509023455   12.8196194697
   252      1    0.6424310088   33.3759032150   12.8169198839
   253      1    1.9272900029   53.4011033187   12.7918199291
   254      1    0.6424320110   55.6260970668   12.7888197179
   255      1    1.9272900029   48.9511015797   12.7976194312
   256      1    1.9272900029   57.8511976361   12.7858195066
   257      1    1.9272900022   56.3705983460   14.8874199092
   258      1    0.6424320103   54.1454977767   14.8903196602
   259      1    0.6424320103   58.5955992155   14.8843192377
   260      1    0.6424310081   31.8949977041   14.9182196610
   261      1    0.6424310081   36.3450991429   14.9129194389
   262      1    1.9272900022   34.1199985736   14.9156197801
   263      1    1.9272900022   47.4703028900   14.8991193735
   264      1    0.6424310081   45.2453020205   14.9019194196
   265      1    1.9272900022   51.9204969072   14.8933198714
   266      1    0.6424310081   49.6954034593   14.8962196225
   267      1    0.6424310081   40.7952005817   14.9075195118
   268      1    1.9272900022   38.5701000124   14.9102198530
   269      1    1.9272900022   43.0202014512   14.9047194657
   270      1    1.9272900015   32.6391001840   17.0180193326
   271      1    0.6424310074   39.3143021921   17.0099198196
   272      1    1.9272900015   37.0892016228   17.0127198657
   273      1    0.6424310074   43.7645033308   17.0044194323
   274      1    1.9272900015   41.5394027614   17.0072194784
   275      1    0.6424310074   48.2145976482   16.9988193401
   276      1    0.6424310074   34.8642007533   17.0154194516
   277      1    1.9272900015   45.9895967787   17.0016193862
   278      1    0.6424310074   52.6647987868   16.9930198381
   279      1    1.9272900015   50.4396982175   16.9959195891
   280      1    0.6424310074   57.1150996252   16.9870194155
   281      1    1.9272900015   54.8899990559   16.9900196268
   282      1    1.9272899993   54.8982029246   23.2598198805
   283      1    0.6424310053   57.1234031938   23.2568196692
   284      1    0.6424310074   30.4139996147   17.0207196738
   285      1    0.6424310067   55.6344006353   19.0894197234
   286      1    1.9272900008   53.4093000660   19.0924199346
   287      1    1.9272900008   35.6083032333   19.1149192531
   288      1    1.9272900008   44.5086983891   19.1039192338
   289      1    0.6424310067   46.7338986582   19.1011199430
   290      1    0.6424310067   42.2835978198   19.1067192799
   291      1    1.9272900008   40.0584972505   19.1095193260
   292      1    1.9272900008   48.9589992276   19.0983198969
   293      1    0.6424310067   33.3832026639   19.1176195943
   294      1    0.6424310067   51.1840997969   19.0954193906
   295      1    1.9272900008   31.1581020946   19.1202194752
   296      1    0.6424310067   37.8333966812   19.1122196672
   297      1    1.9272900008   57.8596009045   19.0864195121
   298      1    1.9272900001   56.3789019145   21.1789195760
   299      1    0.6424310060   58.6041021837   21.1759193647
   300      1    0.6424310060   45.2530002687   21.1935195467
   301      1    1.9272900000   43.0278996994   21.1963195928
   302      1    1.9272900001   51.9285013763   21.1849192432
   303      1    0.6424310060   54.1537016454   21.1819197873
   304      1    1.9272900001   47.4782005378   21.1907195005
   305      1    0.6424310060   49.7034008070   21.1878197495
   306      1    0.6424310060   36.3523985918   21.2045195659
   307      1    1.9272900000   34.1272980225   21.2072199071
   308      1    0.6424310060   40.8026994302   21.1991196389
   309      1    0.6424320410   42.2613006737    0.2362001669
   310      1    1.9272900329   40.0363995041    0.2390002131
   311      1    0.6424330432   51.1605991316    0.2247998173
   312      1    1.9272900329   35.5866968645    0.2444001401
   313      1    1.9272900329   44.4861021436    0.2334001208
   314      1    0.6424320410   46.7109036135    0.2306000747
   315      1    0.6424310388   37.8115980342    0.2416997989
   316      1    1.9272900329   31.1369016466    0.2498000672
   317      1    0.6424310388   33.3618028163    0.2470997260
   318      1    1.9272900329   48.9357976617    0.2277003237
   319      1    1.9272900329   53.3854006014    0.2219000663
   320      1    0.6424340454   55.6102020713    0.2188998551
   321      1    1.9272900329   57.8350035412    0.2158996438
   322      1    1.9272899993   59.3487031627   23.2538194579
   323      1    1.9272900029   89.0016014869   12.7380193129
   324      1    1.9272700084   89.0124972508   19.0386193184
   325      1    1.9273300156   88.9909977011    6.4382494263
   326      1    1.9272800032   86.0526018896   23.2129192970
   327      1    0.6424139937   88.2780015584   23.2091199358
   328      1    1.9272800032   81.6018025521   23.2203193649
   329      1    0.6424220113   83.8272022209   23.2167194135
   330      1    1.9272899994   77.1511029144   23.2275192676
   331      1    0.6424259943   79.3765025831   23.2240197765
   332      1    1.9272899994   72.7004032766   23.2344193003
   333      1    0.6424290009   74.9258029454   23.2310195141
   334      1    1.9272899994   68.2498033387   23.2411199232
   335      1    0.6424300031   70.4751033077   23.2378198419
   336      1    0.6424310053   66.0245033698   23.2443195443
   337      1    1.9272900065   60.8040000694    2.2908493782
   338      1    0.6424359977   63.0288015392    2.2877192484
   339      1    1.9273000027   74.1527020673    2.2712996632
   340      1    1.9273099989   78.6021981858    2.2643392033
   341      1    0.6424479983   76.3773967159    2.2678492692
   342      1    0.6424380020   67.4783973575    2.2813094315
   343      1    1.9273000027   65.2536030091    2.2845392662
   344      1    0.6424420108   71.9279005974    2.2746994495
   345      1    1.9273000027   69.7030991276    2.2780297444
   346      1    1.9273500094   87.5009981445    2.2496198889
   347      1    0.6424750060   85.2763034959    2.2534094307
   348      1    1.9273199951   83.0516017258    2.2571196617
   349      1    0.6424579945   80.8268999558    2.2607596461
   350      1    0.6424339926   61.5483019489    4.3804096580
   351      1    0.6424359969   65.9979974671    4.3740799072
   352      1    1.9272900058   63.7731034188    4.3772697088
   353      1    0.6424380013   70.4476004068    4.3675394164
   354      1    1.9273000020   68.2227989369    4.3708296783
   355      1    0.6424420101   74.8972033465    4.3607693022
   356      1    1.9273000020   72.6724018766    4.3641894826
   357      1    0.6424489997   79.3467991648    4.3537695646
   358      1    1.9273000020   77.1219976949    4.3572992694
   359      1    0.6424599981   83.7964021045    4.3465092347
   360      1    1.9273099982   81.5716006347    4.3501794327
   361      1    0.6424780119   88.2458982230    4.3389792482
   362      1    1.9273300163   86.0212035744    4.3427793648
   363      1    0.6424380006   73.4171025555    6.4635993986
   364      1    1.9272900051   66.7424987463    6.4735396756
   365      1    0.6424359962   68.9673002161    6.4702796273
   366      1    1.9273099975   84.5413021830    6.4458292652
   367      1    0.6424479968   82.3165007132    6.4495092826
   368      1    1.9273000013   75.6418969039    6.4601693988
   369      1    1.9273000013   80.0915995435    6.4531296282
   370      1    0.6424589952   86.7661036529    6.4420797564
   371      1    1.9273000013   71.1922013858    6.4669697266
   372      1    0.6424420094   77.8667980736    6.4566797271
   373      1    1.9272900051   62.2927035284    6.4798996401
   374      1    0.6424329897   60.0678023587    6.4830093757
   375      1    0.6424339918   64.5175975766    6.4767498715
   376      1    1.9272900043   60.8121968167    8.5826897035
   377      1    0.6424330146   63.0370979863    8.5795693931
   378      1    1.9273000006   74.1618032344    8.5631898409
   379      1    0.6424369977   76.3866972826    8.5597394469
   380      1    0.6424349933   71.9369020647    8.5665692330
   381      1    0.6424339911   67.4870000255    8.5731792150
   382      1    1.9272900043   65.2620988558    8.5763992303
   383      1    1.9272900043   69.7119011952    8.5698995279
   384      1    1.9273000006   78.6115984523    8.5562293810
   385      1    1.9273099968   87.5112031310    8.5415395249
   386      1    0.6424400043   80.8364996220    8.5526596433
   387      1    1.9273000006   83.0614007917    8.5490196588
   388      1    0.6424450152   85.2863019613    8.5453192472
   389      1    0.6424330139   61.5566980959   10.6812196481
   390      1    0.6424330139   66.0066001351   10.6749193555
   391      1    1.9272900036   63.7816989654   10.6781197320
   392      1    0.6424330139   70.4566018740   10.6683191929
   393      1    1.9272900036   68.2316010046   10.6716192742
   394      1    0.6424339904   74.9064967918   10.6616193254
   395      1    1.9272900036   72.6816027435   10.6650198669
   396      1    0.6424349926   79.3564985308   10.6546195877
   397      1    1.9272900036   77.1314976613   10.6581198342
   398      1    0.6424359948   83.8064005700   10.6473192247
   399      1    1.9272999998   81.5814994003   10.6510196364
   400      1    0.6424379992   88.2564023090   10.6398194519
   401      1    1.9272999998   86.0314014395   10.6436195685
   402      1    0.6424320110   73.4264031222   12.7633194328
   403      1    1.9272900029   66.7513008139   12.7733193817
   404      1    0.6424320110   68.9763016834   12.7700193004
   405      1    1.9272900029   84.5515000481   12.7456195460
   406      1    1.9272900029   71.2013025529   12.7667192190
   407      1    0.6424310088   82.3264991786   12.7493192023
   408      1    1.9272900029   75.6513968703   12.7599196466
   409      1    1.9272900029   80.1014983091   12.7529199090
   410      1    0.6424290045   86.7766006174   12.7418194295
   411      1    0.6424320110   77.8763977398   12.7564194001
   412      1    1.9272900029   62.3011993751   12.7796196743
   413      1    0.6424320110   60.0761985056   12.7827195904
   414      1    0.6424320110   64.5262002446   12.7765197581
   415      1    1.9272900022   60.8206997848   14.8812193215
   416      1    0.6424320103   63.0458003541   14.8781194053
   417      1    1.9272900022   74.1712035009   14.8617194590
   418      1    0.6424300059   76.3962969488   14.8583196727
   419      1    0.6424310081   71.9461029316   14.8651192452
   420      1    0.6424310081   67.4960014928   14.8717194078
   421      1    1.9272900022   65.2709009235   14.8750194892
   422      1    1.9272900022   69.7210023623   14.8685197868
   423      1    1.9272900022   78.6213975181   14.8548194263
   424      1    1.9272800060   87.5217997954   14.8401197507
   425      1    0.6424280016   80.8464980874   14.8512194749
   426      1    1.9272900022   83.0715986568   14.8476195235
   427      1    0.6424249950   85.2966992261   14.8439198672
   428      1    0.6424310074   61.5653007639   16.9809192881
   429      1    0.6424310074   66.0156016023   16.9745192906
   430      1    1.9272900015   63.7904013332   16.9777196670
   431      1    0.6424310074   70.4658027410   16.9680195882
   432      1    1.9272900015   68.2407021716   16.9713196696
   433      1    0.6424290030   74.9161035794   16.9612192604
   434      1    1.9272900015   72.6910030101   16.9646198020
   435      1    0.6424269986   79.3663972964   16.9542195228
   436      1    1.9272900015   77.1412967271   16.9578194742
   437      1    0.6424230156   83.8167978347   16.9470196201
   438      1    1.9272900015   81.5915975656   16.9506195715
   439      1    0.6424170024   88.2670986732   16.9394193870
   440      1    1.9272800053   86.0419981038   16.9432195036
   441      1    1.9272800046   84.5619970127   19.0462195515
   442      1    0.6424310067   60.0847014738   19.0834193009
   443      1    0.6424170017   86.7872969816   19.0424194350
   444      1    1.9272900008   80.1114967746   19.0535199145
   445      1    1.9272900008   62.3099017429   19.0803193847
   446      1    0.6424269979   77.8863036269   19.0570194056
   447      1    0.6424310067   64.5351020120   19.0771197636
   448      1    1.9272900008   66.7603022812   19.0739193872
   449      1    0.6424300045   68.9855025503   19.0706193059
   450      1    1.9272900008   71.2107028194   19.0673192246
   451      1    0.6424290023   73.4359030886   19.0639194383
   452      1    1.9272900008   75.6611033577   19.0605196521
   453      1    0.6424230149   82.3367967435   19.0498195029
   454      1    1.9272900001   65.2798026909   21.1665199113
   455      1    1.9272900001   60.8293024528   21.1728194486
   456      1    0.6424310060   67.5050029600   21.1633195349
   457      1    0.6424310060   63.0546024218   21.1697195324
   458      1    0.6424190054   85.3073030119   21.1354195341
   459      1    1.9272800039   83.0820030429   21.1391199457
   460      1    1.9272700077   87.5326029808   21.1316194175
   461      1    0.6424249928   80.8567030740   21.1427198971
   462      1    0.6424300038   71.9555031981   21.1567193723
   463      1    1.9272900001   69.7303029290   21.1600194536
   464      1    1.9272900001   78.6314031050   21.1463198484
   465      1    0.6424279994   76.4061031360   21.1498193396
   466      1    1.9272900001   74.1808031671   21.1533195860
   467      1    0.6424310053   61.5739034319   23.2507195418
   468      1    1.9272899994   63.7992034008   23.2475199207
   469      1    0.6424680428   82.3069010470    0.1791999297
   470      1    0.6424400328   68.9586975481    0.2001001929
   471      1    1.9273000291   66.7340028995    0.2032998140
   472      1    1.9273700283   88.9807998360    0.1679997452
   473      1    0.6424450438   73.4082007880    0.1934003254
   474      1    1.9273000291   71.1833993182    0.1966996513
   475      1    1.9273200472   80.0821992769    0.1829003413
   476      1    1.9273100510   75.6329025581    0.1899000789
   477      1    0.6424540378   77.8574975069    0.1863998324
   478      1    1.9273400396   84.5315031172    0.1755002734
   479      1    0.6424920440   86.7561977658    0.1717998618
   480      1    0.6424350476   60.0596981898    0.2127997276